distance,U_0,U_1,U_2
0,3.6566537,0.0005472081,355.31577
0.00016157522,6.213388,0.00040882966,346.50498
0.00032315044,8.7715646,0.00028524768,337.61424
0.00048472567,11.331099,0.00017726583,328.63984
0.00064630089,13.891887,8.5762102e-05,319.57781
0.00080787611,16.453798,1.169843e-05,310.42381
0.00096945133,18.549011,0.010978462,301.52159
0.0011310266,20.703865,0.020578361,292.48993
0.0012926018,23.047593,0.025762921,283.22573
0.001454177,25.606625,0.025904795,273.69714
0.0016157522,28.412525,0.020252899,263.86626
0.0017773274,31.503321,0.0078998262,253.68769
0.0019389027,34.399804,0.0001228851,243.49802
0.0021004779,36.960702,0.00023773469,233.39984
0.0022620531,39.518992,8.7288026e-05,223.1482
0.0024236283,37.078066,0.12915642,218.60841
0.0025852036,34.637277,0.18306176,214.13535
0.0027467788,32.350005,0.22761992,209.55249
0.002908354,30.207379,0.26871692,204.86649
0.0030699292,28.200973,0.30656683,200.08367
0.0032315044,26.322776,0.34137396,195.20998
0.0033930797,24.565166,0.37333348,190.25105
0.0034320779,24.168301,0.38040508,189.03486
0.0034803666,25.223789,0.35085922,186.17993
0.0035286554,26.324377,0.32020624,183.27804
0.0035769441,27.47297,0.28837462,180.32629
0.0036252329,28.672726,0.25528672,177.32152
0.0036735216,29.927079,0.2208581,174.26031
0.0037218103,31.239771,0.18499678,171.13895
0.0037700991,32.614884,0.14760245,167.95344
0.0038183878,34.056877,0.10856557,164.69938
0.0038666766,35.570628,0.067766349,161.37205
0.0039149653,37.16148,0.025073627,157.96628
0.0039632541,37.316152,0.014939886,155.95356
0.0040115428,37.150055,0.012074824,154.25189
0.0040598316,36.984364,0.0091893851,152.5495
0.0041081203,36.819088,0.0062830491,150.84637
0.004156409,36.65424,0.0033552752,149.1425
0.0042046978,36.489829,0.00040550307,147.43787
0.0042529865,36.325866,-0.0025668486,145.73246
0.0043012753,36.162364,-0.005562383,144.02627
0.004349564,35.999335,-0.0085817266,142.31927
0.0043978528,35.836791,-0.01162553,140.61145
0.0044461415,35.674745,-0.012133863,138.90279
0.0044944302,35.513212,-0.010789769,137.19328
0.004542719,35.352205,-0.0094267188,135.48291
0.0045910077,35.191739,-0.0080441599,133.77164
0.0046392965,35.031829,-0.0066415166,132.05948
0.0046875852,34.872492,-0.0052181894,130.34639
0.004735874,34.713744,-0.0037735531,128.63237
0.0047841627,34.555603,-0.0023069558,126.91738
0.0048324515,34.398087,-0.00081771713,125.20142
0.0049068739,34.156316,0.0015134813,122.55525
0.0049176706,34.122546,0.0021561506,122.17477
0.0049284674,34.088811,0.0028002442,121.79423
0.0049392641,34.05511,0.0034457723,121.41364
0.0049500609,34.021444,0.0040927447,121.03299
0.0049608576,33.987812,0.0047411718,120.65229
0.0049716544,33.954217,0.0053910637,120.27154
0.0049824511,33.920656,0.0060424308,119.89074
0.0049932479,33.887131,0.0066952836,119.50988
0.0050040446,33.853643,0.0073496326,119.12896
0.0050148414,33.82019,0.0080054885,118.74799
0.0050256381,33.786774,0.0086628621,118.36697
0.0050364349,33.753395,0.0093217642,117.98589
0.0050472316,33.720053,0.009982206,117.60476
0.0050580284,33.686748,0.010644198,117.22357
0.0050688251,33.65348,0.011307753,116.84232
0.0050796219,33.62025,0.01197288,116.46102
0.0050904186,33.587059,0.012639593,116.07967
0.0051012154,33.553906,0.013307901,115.69825
0.0051120121,33.520791,0.013977818,115.31678
0.0051228089,33.487716,0.014649354,114.93526
0.0051336056,33.454679,0.015322522,114.55367
0.0051444024,33.421682,0.015997334,114.17203
0.0051551991,33.382285,0.013359723,113.97645
0.0051659959,33.328178,0.0031465819,114.20621
0.0051767926,33.274064,-0.0070486303,114.4345
0.0051875894,33.219942,-0.017226041,114.66134
0.0051983862,33.165812,-0.027385776,114.88674
0.0052091829,33.111675,-0.037527959,115.11071
0.0052199797,33.05753,-0.047652713,115.33325
0.005222593,33.044423,-0.050099249,115.38677
0.0052757222,32.893668,-0.026674625,112.53555
0.0053288513,32.745329,-0.0024822649,109.64946
0.0053819804,32.58854,0.015452182,107.02323
0.0054351095,32.401083,0.012925207,105.25252
0.0054882387,32.214333,0.010350426,103.47997
0.0055413678,32.028318,0.0077259817,101.70554
0.0055944969,31.843066,0.0050499104,99.929175
0.005647626,31.658607,0.0023201396,98.150825
0.0057007552,31.474974,-0.00046552261,96.370436
0.0057538843,31.292202,-0.0033093954,94.587954
0.0058070134,31.110326,-0.0062139355,92.803323
0.0058601425,30.929385,-0.0091817471,91.016484
0.0059132717,30.749419,-0.012215594,89.227376
0.0059664008,30.570474,-0.011706048,87.43594
0.0060195299,30.392594,-0.0070040238,85.642111
0.006072659,30.21583,-0.0022318257,83.845826
0.0061257882,30.040234,0.0026137505,82.047018
0.0061789173,29.865863,0.0075361177,80.24562
0.0062320464,29.692779,0.012538914,78.441565
0.0062851755,29.450942,-0.013692942,78.151117
0.0063383046,29.135503,-0.072796402,79.44563
0.0063914338,28.820562,-0.13110864,80.687273
0.0064445629,28.506118,-0.18866836,81.878587
0.006497692,28.192166,-0.24551111,83.021895
0.0065508211,27.878704,-0.3016697,84.11933
0.0066014646,27.580371,-0.35457756,85.123561
0.0066519069,27.457156,-0.33103164,82.598405
0.0067023492,27.337512,-0.30654965,80.034843
0.0067527916,27.221738,-0.28105402,77.429885
0.0068032339,27.110177,-0.25445722,74.780181
0.0068536762,27.003216,-0.22666006,72.081953
0.0069041186,26.9013,-0.19754947,69.330926
0.0069545609,26.804942,-0.16699589,66.522232
0.0070050033,26.714737,-0.13484987,63.650304
0.0070554456,26.631381,-0.10093792,60.708731
0.0071058879,26.555694,-0.065057139,57.690091
0.0071563303,26.488654,-0.026968428,54.585729
0.0072067726,26.383777,-0.0041288891,51.984371
0.007257215,26.20521,-0.0058837962,50.334548
0.0073076573,25.930356,-0.033722118,50.183818
0.0073580996,25.550307,-0.099725434,51.643455
0.007408542,25.17318,-0.16435304,53.025433
0.0074589843,24.798864,-0.22769598,54.335101
0.0075094267,24.427251,-0.27660964,55.577209
0.007559869,24.058237,-0.31537762,56.755996
0.0076103113,23.691723,-0.35268508,57.875255
0.0076607537,23.327617,-0.3886139,58.938394
0.007711196,22.965833,-0.42323802,59.948487
0.0077616383,22.606287,-0.45662444,60.908314
0.0078108603,22.257551,-0.48805475,61.798332
0.0078596321,22.164432,-0.44232506,59.643462
0.0079084038,22.076268,-0.39556907,57.449472
0.0079571756,21.993551,-0.34769321,55.212839
0.0080059473,21.916844,-0.29859071,52.929549
0.0080547191,21.846804,-0.24813901,50.595006
0.0081034908,21.784201,-0.19619666,48.203918
0.0081522626,21.729941,-0.14259931,45.750156
0.0082010344,21.685104,-0.087154795,43.226576
0.0082498061,21.650991,-0.029636965,40.624806
0.0082985779,21.478894,-0.01192,39.6221
0.0083473496,21.238181,-0.013764717,39.404398
0.0083961214,20.997051,-0.015607827,39.186378
0.0084448931,20.755497,-0.014776329,38.968035
0.0084936649,20.513514,-0.013704356,38.749367
0.0085424366,20.271097,-0.012636895,38.530369
0.0085912084,20.028241,-0.011574043,38.311037
0.0086399802,19.78494,-0.010515898,38.091367
0.0086887519,19.393917,-0.040584207,38.845813
0.0087375237,18.964719,-0.078268937,39.833088
0.0087862954,18.541502,-0.11418302,40.758272
0.0088350672,18.123992,-0.1484362,41.625337
0.0088838389,17.711928,-0.18112695,42.437838
0.0089326107,17.305074,-0.2123438,43.198966
0.0089813824,16.903208,-0.24216662,43.911589
0.008983139,16.888908,-0.24319308,43.935601
0.0090210928,16.846594,-0.20908532,42.580408
0.0090590466,16.808347,-0.17427828,41.203486
0.0090970004,16.774518,-0.13871656,39.803137
0.0091349542,16.7455,-0.10233816,38.37747
0.009172908,16.721743,-0.065073446,36.924363
0.0092108618,16.70376,-0.026843904,35.441431
0.0092488157,16.572513,-0.014588502,34.851594
0.0092867695,16.382362,-0.015721954,34.721368
0.0093247233,16.191826,-0.016852584,34.590753
0.0093626771,16.000904,-0.01798034,34.459746
0.0094006309,15.809591,-0.019105166,34.328343
0.0094385847,15.617886,-0.020227005,34.196541
0.0094765385,15.425785,-0.0213458,34.064336
0.0095144924,15.233285,-0.022461491,33.931724
0.0095524462,15.040383,-0.023574018,33.798702
0.0095904,14.847077,-0.024683318,33.665266
0.0096283538,14.653363,-0.024269557,33.531412
0.0096663076,14.459239,-0.023746561,33.397137
0.0097042614,14.264701,-0.023228952,33.262437
0.0097422152,14.069746,-0.022716821,33.127308
0.0097801691,13.874373,-0.022210257,32.991745
0.0098181229,13.678576,-0.021709353,32.855746
0.0098560767,13.482355,-0.021214204,32.719306
0.0098940305,13.285704,-0.020724906,32.582422
0.0099319843,13.088623,-0.020241558,32.445088
0.0099699381,12.891107,-0.019764262,32.307302
0.010007892,12.693153,-0.01929312,32.169059
0.010045846,12.494759,-0.01882824,32.030354
0.0100838,12.295921,-0.018369727,31.891184
0.010140028,12.000682,-0.017700041,31.684309
0.010146689,11.965433,-0.017555733,31.658562
0.010153349,11.930169,-0.017411586,31.632799
0.01016001,11.894892,-0.0172676,31.607022
0.01016667,11.8596,-0.017123775,31.58123
0.010173331,11.824295,-0.016980113,31.555423
0.010179991,11.788976,-0.016836614,31.529601
0.010186651,11.753643,-0.016693278,31.503764
0.010193312,11.718296,-0.016550106,31.477912
0.010199972,11.682935,-0.016407099,31.452044
0.010206633,11.64756,-0.016264257,31.426162
0.010213293,11.612171,-0.01612158,31.400265
0.010219954,11.576768,-0.01597907,31.374352
0.010226614,11.541351,-0.015836726,31.348424
0.010233275,11.50592,-0.01569455,31.322482
0.010239935,11.470475,-0.015552542,31.296523
0.010246596,11.435016,-0.015410703,31.27055
0.010253256,11.399542,-0.015269032,31.244562
0.010259917,11.364055,-0.015127532,31.218558
0.010266577,11.328553,-0.014986202,31.192539
0.010273238,11.293037,-0.014845042,31.166504
0.010279898,11.257508,-0.014704055,31.140454
0.010286559,11.221964,-0.014563239,31.114389
0.010293219,11.186405,-0.014422597,31.088309
0.01029988,11.169862,-0.015088536,31.07059
0.01030654,11.219109,-0.018543137,31.081834
0.010313201,11.268606,-0.022008296,31.093203
0.010319861,11.318354,-0.025484034,31.104698
0.010326522,11.368352,-0.028970374,31.116319
0.010333182,11.418601,-0.032467337,31.128067
0.010344925,11.507639,-0.038651509,31.149004
0.010398805,10.964483,-0.02506409,30.872102
0.010452685,10.486676,-0.014616395,30.616982
0.010506564,10.233035,-0.014775554,30.441167
0.010560444,9.9783132,-0.01493275,30.264159
0.010614324,9.7225002,-0.015087932,30.085941
0.010668204,9.4655833,-0.015241048,29.906496
0.010722083,9.2075501,-0.015392045,29.725806
0.010775963,8.9483884,-0.015540866,29.543854
0.010829843,8.6880858,-0.015687454,29.360621
0.010883723,8.42663,-0.01583175,29.176089
0.010937602,8.1640087,-0.015973691,28.990241
0.010991482,7.9002095,-0.016113214,28.803056
0.011045362,7.6352202,-0.016250253,28.614516
0.011099242,7.3690285,-0.01638474,28.424602
0.011153121,7.1016225,-0.016516603,28.233294
0.011207001,6.83299,-0.016645771,28.040572
0.011260881,6.5631194,-0.016772167,27.846417
0.01131476,6.291999,-0.016713029,27.650808
0.01136864,6.0196176,-0.01662043,27.453725
0.01142252,5.745964,-0.016531577,27.255148
0.0114764,5.4710276,-0.016446577,27.055056
0.011530279,5.194798,-0.016365542,26.853428
0.011584159,4.9172655,-0.016288585,26.650245
0.011638039,4.6384206,-0.016215826,26.445486
0.011691919,4.3582547,-0.016147385,26.239129
0.011745798,4.0767596,-0.01608339,26.031155
0.011799678,3.7939282,-0.016023972,25.821543
0.011853558,3.628591,-0.020756387,25.653648
0.011907438,3.6934323,-0.034814108,25.569105
0.013136038,5.2717997,-0.22532484,23.685971
0.013201892,5.0624176,-0.20957709,23.448751
0.013267746,4.853868,-0.19405457,23.211986
0.013333599,4.6461751,-0.17876211,22.975694
0.013399453,4.4393639,-0.16370464,22.739896
0.013465307,4.2334601,-0.14888721,22.50461
0.01353116,4.0284902,-0.13431496,22.269857
0.013597014,3.8244813,-0.11999315,22.035659
0.013662868,3.6214616,-0.10592714,21.802037
0.013728721,3.4194599,-0.092122384,21.569014
0.013794575,3.2185059,-0.078584455,21.336614
0.013860429,3.0186301,-0.065319017,21.104862
0.013926282,2.819864,-0.052331836,20.873783
0.013992136,2.6222397,-0.039628775,20.643403
0.01405799,2.4257903,-0.027215793,20.413749
0.014123844,2.2305498,-0.015098935,20.184849
0.014189697,2.0365529,-0.0032843372,19.956732
0.014255551,1.8898291,4.8601573e-05,19.77563
0.014321405,1.7591704,0.00046520736,19.610303
0.014387258,1.6282468,0.00087386815,19.444385
0.014453112,1.4970578,0.0012744106,19.27787
0.014518966,1.3656026,0.0016666562,19.110752
0.014584819,1.2338809,0.0020504211,18.943025
0.014650673,1.1018922,0.002425516,18.774683
0.014716527,0.96963662,0.0027917459,18.60572
0.01478238,0.83711406,0.00314891,18.436131
0.014848234,0.70432484,0.0034968016,18.265909
0.014914088,0.57126945,0.0038352075,18.095049
0.014979942,0.43794861,0.0041639084,17.923546
0.015045795,0.30436334,0.0044826782,17.751395
0.015081621,0.23154736,0.0046505655,17.657386
0.015243235,0.092145736,0.0039989289,17.293276
0.015404849,-0.047902771,0.0033203192,16.927494
0.015566463,-0.18862013,0.0026134804,16.559986
0.015728076,-0.3300292,0.0018770696,16.190691
0.01588969,-0.4721537,0.0011096488,15.81955
0.016051304,-0.61501822,0.00030967699,15.446499
0.016212918,-0.72235972,-0.00099844169,15.114165
0.016374532,-0.74825564,-0.0034055553,14.876805
0.016536146,-0.77316904,-0.0058369189,14.640338
0.01669776,-0.79709578,-0.0082926338,14.404771
0.016859374,-0.82003179,-0.010772799,14.170107
0.017020988,-0.84197316,-0.013277512,13.936352
0.017182602,-0.86291609,-0.015806866,13.703511
0.017344215,-0.88285692,-0.018360954,13.471588
0.017505829,-0.90179212,-0.017774573,13.240589
0.017667443,-0.91971835,-0.016443395,13.010517
0.017829057,-0.93663238,-0.015139652,12.781376
0.017990671,-0.95253117,-0.013863447,12.553172
0.018152285,-0.96741185,-0.01261488,12.325908
0.018313899,-0.98127172,-0.011394048,12.099588
0.018475513,-0.99410829,-0.010201042,11.874216
0.018637127,-1.0059192,-0.009035949,11.649795
0.018798741,-1.0167025,-0.0078988528,11.426329
0.018960354,-1.0264561,-0.0067898315,11.203821
0.019121968,-1.0351786,-0.0057089582,10.982274
0.019280217,-1.0427082,-0.0046782229,10.766284
0.01930224,-1.0604802,-0.0041870192,10.708714
0.019324263,-1.0785122,-0.003691035,10.650636
0.019346287,-1.0968102,-0.0031901585,10.592038
0.01936831,-1.1153806,-0.0026842741,10.532909
0.019390333,-1.1342298,-0.0021732622,10.473235
0.019412357,-1.1533646,-0.0016569992,10.413005
0.01943438,-1.1727919,-0.0011353572,10.352203
0.019456403,-1.192519,-0.00060820388,10.290817
0.019478426,-1.2125533,-7.5402135e-05,10.228832
0.01950045,-1.2329027,0.00046318994,10.166233
0.019522473,-1.253575,0.0010077194,10.103004
0.019544496,-1.2745787,0.0015583388,10.03913
0.01956652,-1.2959223,0.002115206,9.9745936
0.019588543,-1.3176149,0.0026784853,9.9093777
0.019610566,-1.3396657,0.0032483467,9.8434644
0.01963259,-1.3328105,0.0033120194,9.8278841
0.019654613,-1.3253518,0.0033650021,9.8133676
0.019676636,-1.317892,0.0034178425,9.7988663
0.01969866,-1.3104312,0.0034705402,9.7843801
0.019720683,-1.3029693,0.0035230946,9.7699092
0.019742706,-1.2955064,0.0035755054,9.7554535
0.01976473,-1.2880425,0.0036277721,9.7410132
0.019786753,-1.2805775,0.0036798941,9.7265883
0.019808776,-1.2731114,0.003731871,9.7121789
0.019830799,-1.2656443,0.0037837024,9.697785
0.019852823,-1.2581761,0.0038353877,9.6834067
0.019874846,-1.2507068,0.0038869265,9.6690441
0.019896869,-1.2432365,0.0039383183,9.6546972
0.019918893,-1.2357652,0.0039895627,9.640366
0.019942847,-1.2276376,0.004045139,9.6247957
0.020069102,-1.1889854,0.0040524056,9.5312501
0.020195357,-1.1503056,0.004056051,9.4381376
0.020321613,-1.111598,0.0040559998,9.3454692
0.020447868,-1.072862,0.0040521747,9.253256
0.020574123,-1.0340974,0.0040444966,9.1615098
0.020700378,-0.9953039,0.0040328847,9.0702424
0.020826634,-0.95648114,0.0040172562,8.9794661
0.020952889,-0.9176288,0.0039975267,8.8891937
0.021079144,-0.87874659,0.0039736095,8.7994381
0.021205399,-0.83983421,0.0039454166,8.7102127
0.021331654,-0.8008914,0.0039128576,8.6215313
0.02145791,-0.76191787,0.0038758404,8.5334081
0.021584165,-0.72291339,0.0038342711,8.4458577
0.02171042,-0.68387772,0.0037880538,8.3588951
0.021836675,-0.64481066,0.0037370908,8.2725358
0.021962931,-0.60571202,0.0036812824,8.1867954
0.022089186,-0.56658162,0.0035229906,8.1016904
0.022215441,-0.54001921,0.0043756227,8.0592122
0.022341696,-0.52318077,0.0041074747,8.0496756
0.022467951,-0.50608584,0.0036119285,8.0396609
0.022594207,-0.48873023,0.0030973992,8.0291601
0.022720462,-0.47110963,0.0025635782,8.018165
0.022846717,-0.4532196,0.002010148,8.0066674
0.022972972,-0.43505557,0.0014367818,7.9946586
0.023099228,-0.41661286,0.00084314317,7.9821297
0.023225483,-0.40541131,0.00070535681,7.9796595
0.023351738,-0.39595478,0.00067623456,7.9795634
0.023477993,-0.38651624,0.00064662195,7.9794232
0.023604249,-0.37709568,0.00061652039,7.979239
0.024806189,-0.28758339,0.00032531442,7.9770672
0.024913825,-0.2789196,0.00038140761,7.9758262
0.025021461,-0.2702699,0.00043707133,7.9745508
0.025129097,-0.26163431,0.0004923063,7.9732411
0.025236733,-0.2530128,0.00054711325,7.9718972
0.025344369,-0.24440537,0.00060149291,7.9705191
0.025452004,-0.23581201,0.00065544601,7.9691068
0.02555964,-0.22723271,0.00070897325,7.9676603
0.025667276,-0.2225163,0.00090232906,7.9693392
0.025774912,-0.21881625,0.0011320971,7.9718268
0.025882548,-0.21510665,0.0013609755,7.9742865
0.025990184,-0.21138749,0.0015889636,7.9767182
0.02609782,-0.20765875,0.0018160605,7.9791218
0.026205456,-0.20392042,0.0020422657,7.9814973
0.026313092,-0.20017247,0.0022675782,7.9838446
0.026420728,-0.1964149,0.0024919974,7.9861637
0.026528364,-0.19264768,0.0027155226,7.9884545
0.026636,-0.1888708,0.0029381528,7.990717
0.026743635,-0.18508425,0.0031598874,7.9929512
0.026851271,-0.18128801,0.0033807255,7.9951569
0.026958907,-0.17748205,0.0036006664,7.9973341
0.027066543,-0.17366637,0.0038197091,7.9994829
0.027174179,-0.16984094,0.0037432155,8.001603
0.027281815,-0.16600575,0.0035901348,8.0036945
0.027389451,-0.16216079,0.0034363118,8.0057573
0.027497087,-0.15830603,0.0032817452,8.0077914
0.027604723,-0.15444145,0.0031264337,8.0097967
0.027712359,-0.15056705,0.0029703762,8.0117731
0.027819995,-0.14668279,0.0028135711,8.0137207
0.027927631,-0.14278867,0.0026560173,8.0156392
0.029655529,-0.081387646,0.00018823194,8.0465164
0.029673622,-0.081103189,0.00019135176,8.0471138
0.029691716,-0.080818762,0.00019447061,8.0477109
0.029709809,-0.080626923,0.00019970547,8.0482488
0.029727903,-0.080492385,0.00020624971,8.0487501
0.029745996,-0.080357842,0.00021279285,8.0492513
0.02976409,-0.080223291,0.0002193349,8.0497523
0.029782183,-0.080088735,0.00022587586,8.0502532
0.029800277,-0.079954172,0.00023241573,8.050754
0.029818371,-0.079819602,0.00023895451,8.0512547
0.029836464,-0.079685026,0.0002454922,8.0517552
0.029854558,-0.079550444,0.00025202879,8.0522556
0.029872651,-0.079415856,0.00025856429,8.0527559
0.029890745,-0.079281261,0.00026509871,8.053256
0.029908838,-0.079146659,0.00027163203,8.053756
0.029926932,-0.079012052,0.00027816426,8.0542559
0.029945025,-0.078877437,0.0002846954,8.0547557
0.029963119,-0.078742817,0.00029122546,8.0552553
0.029981212,-0.07860819,0.00029775442,8.0557548
0.029999306,-0.078473556,0.00030428229,8.0562542
0.030017399,-0.078338917,0.00031080907,8.0567535
0.030035493,-0.078204271,0.00031733476,8.0572526
0.030053587,-0.078069618,0.00032385936,8.0577516
0.03007168,-0.077934959,0.00033038288,8.0582504
0.030089774,-0.077800294,0.0003369053,8.0587492
0.030107867,-0.077665622,0.00034342663,8.0592478
0.030125961,-0.077530944,0.00034994688,8.0597463
0.030144054,-0.07739626,0.00035646603,8.0602446
0.030162148,-0.077261569,0.0003629841,8.0607428
0.030180241,-0.077126872,0.00036950108,8.0612409
0.030214976,-0.076868274,0.00038200999,8.0621969
0.030357936,-0.075687424,0.00042535175,8.0661884
0.030500895,-0.074507979,0.00046875044,8.07017
0.030643854,-0.073329936,0.00051220591,8.0741419
0.030786813,-0.072153292,0.00055571801,8.0781041
0.030929772,-0.070978043,0.00059928658,8.0820565
0.031072731,-0.069804186,0.00064291147,8.0859993
0.03121569,-0.06863172,0.00068659254,8.0899323
0.03135865,-0.067460639,0.00073032962,8.0938557
0.031501609,-0.066290943,0.00077412258,8.0977695
0.031644568,-0.065122626,0.00081797125,8.1016737
0.031787527,-0.063955687,0.0008618755,8.1055683
0.031930486,-0.062790123,0.00090583518,8.1094533
0.032073445,-0.061625931,0.00086569979,8.1133287
0.032216404,-0.060463107,0.00081451879,8.1171946
0.032359363,-0.059301649,0.00076340994,8.121051
0.032502323,-0.058141553,0.00071237306,8.1248979
0.032645282,-0.056982818,0.00066140802,8.1287354
0.032788241,-0.055825439,0.00061051465,8.1325634
0.0329312,-0.054669415,0.00055969279,8.136382
0.033074159,-0.053514742,0.00050894231,8.1401911
0.033217118,-0.052361418,0.00045826303,8.1439909
0.033360077,-0.051209439,0.00040765482,8.1477813
0.033503037,-0.050058803,0.00035711752,8.1515624
0.033645996,-0.048909506,0.00030665098,8.1553341
0.033788955,-0.047761547,0.00025625505,8.1590965
0.033931914,-0.046614922,0.00020592958,8.1628496
0.034074873,-0.045469629,0.00015567442,8.1665935
0.034217832,-0.044325665,0.00010548943,8.1703281
0.034360791,-0.04394765,9.8118388e-05,8.1738259
0.034503676,-0.043591422,9.1955355e-05,8.1773124
0.034665278,-0.043125768,9.8235138e-05,8.1812712
0.034826881,-0.042666917,0.00010512161,8.1852199
0.034988483,-0.042294195,0.00011982298,8.1890886
0.035150085,-0.041921643,0.00013452914,8.1929539
0.035311688,-0.041549259,0.00014924009,8.1968157
0.03547329,-0.041177044,0.00016395581,8.2006742
0.035634892,-0.040804998,0.00017867629,8.2045291
0.035796495,-0.04043312,0.00019340152,8.2083807
0.035958097,-0.04006141,0.00020813151,8.2122289
0.036119699,-0.039689868,0.00022286623,8.2160736
0.036281301,-0.039318493,0.00023760569,8.219915
0.036442904,-0.038947285,0.00025234987,8.2237529
0.036604506,-0.038576245,0.00026709876,8.2275875
0.036766108,-0.038205371,0.00028185235,8.2314186
0.036927711,-0.037834664,0.00027161735,8.2352464
0.037089313,-0.037464124,0.00025545276,8.2390708
0.037250915,-0.037093749,0.00023929678,8.2428918
0.037412518,-0.036723541,0.0002231494,8.2467094
0.03757412,-0.036353498,0.00020701061,8.2505237
0.037735722,-0.03598362,0.00019088038,8.2543346
0.037897324,-0.035613908,0.00017475872,8.2581422
0.038058927,-0.035244361,0.0001586456,8.2619464
0.038220529,-0.034874978,0.00014254103,8.2657473
0.038382131,-0.03450576,0.00012644497,8.2695448
0.038543734,-0.034136707,0.00011035743,8.273339
0.038705336,-0.033767817,9.4278394e-05,8.2771298
0.038866938,-0.033401793,7.8379286e-05,8.2809093
0.03902854,-0.033203309,7.3108591e-05,8.2841901
0.039190143,-0.033004875,6.783969e-05,8.2874691
0.039351728,-0.032806513,6.2573124e-05,8.2907461
0.03951333,-0.032564755,6.7449654e-05,8.2940429
0.039674931,-0.032323057,7.2327107e-05,8.2973376
0.039836532,-0.032081421,7.7205481e-05,8.3006302
0.039998133,-0.031869441,8.4519114e-05,8.3038597
0.040159735,-0.031667273,9.2635884e-05,8.3070673
0.040321336,-0.031465167,0.0001007538,8.3102731
0.040482937,-0.031263122,0.00010887286,8.3134772
0.040644539,-0.031061138,0.00011699307,8.3166795
0.04080614,-0.030859215,0.00012511441,8.3198801
0.040967741,-0.030657354,0.0001332369,8.3230789
0.041129342,-0.030455553,0.00014136053,8.326276
0.041290944,-0.030253814,0.00014948529,8.3294713
0.041452545,-0.030052135,0.00015761119,8.3326649
0.041614146,-0.029850517,0.00016573822,8.3358568
0.041775747,-0.02964896,0.00016032771,8.3390469
0.041937349,-0.029447464,0.00015160489,8.3422353
0.04209895,-0.029246028,0.00014288487,8.345422
0.042260551,-0.029044654,0.00013416765,8.3486069
0.042422152,-0.028843339,0.00012545322,8.3517901
0.042583754,-0.028642085,0.00011674159,8.3549716
0.042745355,-0.028440892,0.00010803275,8.3581513
0.042906956,-0.028239758,9.9326696e-05,8.3613294
0.043068557,-0.028038685,9.0623426e-05,8.3645057
0.043230159,-0.027837673,8.1922939e-05,8.3676802
0.04339176,-0.02763672,7.3225229e-05,8.3708531
0.043553361,-0.027436478,6.4565901e-05,8.3740204
0.043714963,-0.02731352,6.0137827e-05,8.3767347
0.043876564,-0.027190588,5.5710784e-05,8.3794479
0.044038165,-0.027067683,5.1284771e-05,8.3821602
0.044199759,-0.02694481,4.6859977e-05,8.3848713
0.04436136,-0.026785142,5.1017802e-05,8.3876055
0.044522961,-0.026625509,5.5176061e-05,8.3903385
0.044684562,-0.026465908,5.9334752e-05,8.3930701
0.044846163,-0.026306342,6.3493875e-05,8.3958005
0.045007764,-0.026159148,6.887945e-05,8.3984861
0.045169364,-0.02601625,7.4688878e-05,8.4011555
0.045330965,-0.025873384,8.0498794e-05,8.4038238
0.045492566,-0.025730551,8.6309198e-05,8.4064909
0.045654167,-0.025587751,9.2120089e-05,8.4091568
0.045815768,-0.025444984,9.7931466e-05,8.4118216
0.045977369,-0.025302249,0.00010374333,8.4144853
0.046138969,-0.025159548,0.00010955568,8.4171478
0.04630057,-0.025016879,0.00011536851,8.4198091
0.046462171,-0.024874243,0.00012118183,8.4224693
0.046623772,-0.02473164,0.00011741051,8.4251283
0.046785373,-0.02458907,0.00011124732,8.4277862
0.046946974,-0.024446532,0.00010508559,8.4304429
0.047108574,-0.024304027,9.8925332e-05,8.4330985
0.047270175,-0.024161555,9.2766542e-05,8.435753
0.047431776,-0.024019115,8.6609219e-05,8.4384063
0.047593377,-0.023876707,8.0453361e-05,8.4410584
0.047754978,-0.023734333,7.4298968e-05,8.4437094
0.047916579,-0.02359199,6.8146037e-05,8.4463593
0.048078179,-0.023449681,6.1994569e-05,8.449008
0.04823978,-0.023307403,5.584456e-05,8.4516556
0.048401381,-0.023201576,5.1652335e-05,8.4539916
0.048562982,-0.023103066,4.7852973e-05,8.4562646
0.048724583,-0.023004575,4.4054329e-05,8.4585368
0.048886184,-0.022906101,4.0256402e-05,8.4608082
0.049047781,-0.022807647,3.6459284e-05,8.4630789
0.049209381,-0.022678226,4.0063866e-05,8.4653764
0.049370982,-0.022548829,4.366873e-05,8.467673
0.049532582,-0.022419454,4.7273876e-05,8.4699687
0.049694183,-0.022290102,5.0879302e-05,8.4722633
0.049855783,-0.022160773,5.4485009e-05,8.474557
0.050017384,-0.022033697,5.9587577e-05,8.4768435
0.050178985,-0.021906845,6.4825678e-05,8.4791285
0.050340585,-0.021780016,7.0064171e-05,8.4814126
0.050502186,-0.021653209,7.5303054e-05,8.4836957
0.050663786,-0.021526426,8.0542327e-05,8.4859778
0.050825387,-0.021399665,8.578199e-05,8.488259
0.050986988,-0.021272927,9.1022044e-05,8.4905392
0.051148588,-0.021146211,9.6262486e-05,8.4928185
0.051310189,-0.021019518,0.00010150332,8.4950968
0.051471789,-0.020892848,9.8171861e-05,8.4973742
0.05163339,-0.020766201,9.2669041e-05,8.4996507
0.051794991,-0.020639576,8.7167354e-05,8.5019261
0.051956591,-0.020512974,8.16668e-05,8.5042007
0.052118192,-0.020386395,7.6167377e-05,8.5064743
0.052279792,-0.020259838,7.0669085e-05,8.5087469
0.052441393,-0.020133304,6.5171923e-05,8.5110186
0.052602993,-0.020006792,5.9675889e-05,8.5132893
0.052764594,-0.019880303,5.4180984e-05,8.5155591
0.052926195,-0.019753837,4.8687206e-05,8.517828
0.053087795,-0.019640671,4.436702e-05,8.5199539
0.053249396,-0.019539284,4.1086e-05,8.5219533
0.053410996,-0.019437912,3.7805562e-05,8.5239519
0.053572597,-0.019336556,3.4525706e-05,8.5259498
0.053734198,-0.019235214,3.1246431e-05,8.527947
0.053895795,-0.01913389,2.7967793e-05,8.5299434
0.054057396,-0.01900638,3.1107827e-05,8.5319706
0.054218996,-0.018878888,3.4248125e-05,8.5339968
0.054380597,-0.018751416,3.738869e-05,8.5360221
0.054542197,-0.018623962,4.0529519e-05,8.5380465
0.054703797,-0.018496528,4.3670613e-05,8.54007
0.054865398,-0.018371573,4.7214967e-05,8.542069
0.055026998,-0.018254746,5.2087937e-05,8.543989
0.055188599,-0.018137939,5.6961257e-05,8.5459082
0.055350199,-0.01802115,6.1834928e-05,8.5478265
0.055511799,-0.01790438,6.6708948e-05,8.549744
0.0556734,-0.017787629,7.1583318e-05,8.5516607
0.055835,-0.017670896,7.6458037e-05,8.5535765
0.055996601,-0.017554183,8.1333105e-05,8.5554915
0.056158201,-0.017437488,8.6208521e-05,8.5574056
0.056319801,-0.017320811,8.3164253e-05,8.5593189
0.056481402,-0.017204154,7.8089843e-05,8.5612314
0.056643002,-0.017087515,7.3016353e-05,8.563143
0.056804603,-0.016970895,6.7943785e-05,8.5650538
0.056966203,-0.016854293,6.2872136e-05,8.5669637
0.057127804,-0.016737711,5.7801406e-05,8.5688728
0.057289404,-0.016621146,5.2731596e-05,8.5707811
0.057451004,-0.016504601,4.7662703e-05,8.5726885
0.057612605,-0.016388074,4.2594729e-05,8.5745951
0.057774205,-0.01627549,3.7796691e-05,8.5764642
0.057935806,-0.016194185,3.514285e-05,8.5780407
0.058097406,-0.016112891,3.2489388e-05,8.5796166
0.058259006,-0.016031606,2.9836303e-05,8.581192
0.058420607,-0.015950332,2.7183597e-05,8.5827668
0.058582207,-0.015869067,2.4531268e-05,8.5843411
0.058743805,-0.015787813,2.1879351e-05,8.5859148
0.058905406,-0.015683825,2.4439097e-05,8.5875242
0.059067006,-0.01557985,2.6999013e-05,8.5891329
0.059228606,-0.015475888,2.9559099e-05,8.5907408
0.059390207,-0.015371938,3.2119354e-05,8.5923481
0.059551807,-0.015268,3.4679779e-05,8.5939547
0.059713407,-0.015164075,3.7240373e-05,8.5955606
0.059875007,-0.015072028,4.0513343e-05,8.5971573
0.060036608,-0.014985714,4.4129771e-05,8.5987493
0.060198208,-0.014899411,4.7746368e-05,8.6003408
0.060359808,-0.01481312,5.1363133e-05,8.6019316
0.060521408,-0.014726842,5.4980066e-05,8.6035219
0.060683009,-0.014640576,5.8597166e-05,8.6051116
0.060844609,-0.014554322,6.2214434e-05,8.6067006
0.061006209,-0.01446808,6.583187e-05,8.6082891
0.06116781,-0.01438185,6.360519e-05,8.6098771
0.06132941,-0.014295632,5.986616e-05,8.6114644
0.06149101,-0.014209426,5.6127651e-05,8.6130511
0.06165261,-0.014123233,5.2389661e-05,8.6146373
0.061814211,-0.014037051,4.865219e-05,8.6162229
0.061975811,-0.013950882,4.4915239e-05,8.6178079
0.062137411,-0.013864725,4.1178806e-05,8.6193923
0.062299011,-0.013778579,3.7442892e-05,8.6209761
0.062460612,-0.013692446,3.3707497e-05,8.6225594
0.062622212,-0.013627263,3.0869237e-05,8.6240212
0.062783812,-0.013576462,2.8646902e-05,8.6253997
0.062945413,-0.013525667,2.642479e-05,8.6267778
0.063107013,-0.013474877,2.4202901e-05,8.6281556
0.063268613,-0.013424092,2.1981236e-05,8.6295331
0.063430213,-0.013373313,1.9759794e-05,8.6309102
0.063591812,-0.013322539,1.7538593e-05,8.632287
0.063753412,-0.013252608,1.969492e-05,8.6337044
0.063915013,-0.013182684,2.1851323e-05,8.6351213
0.064076613,-0.013112767,2.4007802e-05,8.6365378
0.064238213,-0.013042858,2.6164357e-05,8.6379539
0.064399813,-0.012972955,2.8320988e-05,8.6393694
0.064561413,-0.01290306,3.0477695e-05,8.6407846
0.064723014,-0.012834741,3.2736533e-05,8.642192
0.064884614,-0.012772186,3.5369746e-05,8.6435723