/*--------------------------------*- C++ -*----------------------------------*\
| =========                 |                                                 |
| \\      /  F ield         | OpenFOAM: The Open Source CFD Toolbox           |
|  \\    /   O peration     | Version:  v1906                                 |
|   \\  /    A nd           | Web:      www.OpenFOAM.com                      |
|    \\/     M anipulation  |                                                 |
\*---------------------------------------------------------------------------*/
FoamFile
{
version		2.0;
format		ascii;
class			volScalarField;
location	"0";
object		p;
}
// * * * * * * * * * * * * * * * * * * * * * * * * * * * * * * * * * * * * * //
dimensions		[1 -1 -2 0 0 0 0];

pchamb 101325;

internalField		uniform $pchamb;

boundaryField
{
inlet
{
type				zeroGradient;
}

outlet
{
type				fixedValue;
value			uniform $pchamb;
}

wall_in
{
type				zeroGradient;
}

wall
{
type				zeroGradient;
}

back
{
type				wedge;
}

front
{
type				wedge;
}

axis
{
type				empty;
}
}

// ************************************************************************* //
