distance,T
0,11339.986
0.00016156667,11191.307
0.00032313333,11035.313
0.0004847,10879.322
0.00064626667,10723.333
0.00080783333,10567.348
0.0009694,10411.367
0.0011309667,10255.389
0.0012925333,10099.416
0.0014541,9943.4472
0.0016156667,9787.4834
0.0017772333,9631.5249
0.0019388,9475.5724
0.0021003667,9319.6263
0.0022619333,9163.6874
0.0024235,9007.7564
0.0025850667,8851.8342
0.0027466333,8695.9219
0.0029082,8540.0206
0.0030697667,8384.1319
0.0032313333,8228.2574
0.0033929,8072.3994
0.0035544667,7916.5603
0.0037160333,7760.7436
0.0038776,7604.9532
0.0040391667,7449.1946
0.0042007333,7293.4746
0.0043623,7137.8026
0.0045238667,6982.1918
0.0046854333,6826.661
0.0048470001,6675.321
0.0050086428,6456.1499
0.0051702854,6300.1108
0.0053319281,6144.0683
0.0054935708,5988.0219
0.0056552134,5831.9715
0.0058168561,5675.9168
0.0059784988,5519.8575
0.0061401415,5363.7932
0.0063017841,5207.7236
0.0064634268,5051.6483
0.0066250695,4895.5668
0.0067867122,4739.4786
0.0069483548,4583.3831
0.0071099975,4427.2797
0.0072716402,4271.1675
0.0074332828,4115.0457
0.0075949255,3958.9133
0.0077565682,3802.7691
0.0079182109,3646.6117
0.0080798535,3490.4396
0.0082414962,3334.2507
0.0084031389,3178.0427
0.0085647815,3021.8127
0.0087264242,2865.5571
0.0088880669,2709.2714
0.0090497096,2552.9497
0.0092113522,2396.5845
0.0093729949,2240.1654
0.0095346376,2083.6778
0.0096950429,1996.0823
0.0098566463,1897.9994
0.01001825,1852.0834
0.010179853,1806.1644
0.010341456,1760.2424
0.01050306,1714.3174
0.010664663,1668.3895
0.010826267,1622.4586
0.01098787,1576.5246
0.011149474,1530.5877
0.011311077,1484.6478
0.01147268,1438.705
0.011634284,1392.7591
0.011795887,1346.8102
0.011957491,1300.8584
0.012119094,1254.9035
0.012280697,1208.9457
0.012442301,1162.9849
0.012603904,1117.0211
0.012765508,1071.0542
0.012927111,1025.0844
0.013088714,979.11164
0.013250318,933.13584
0.013411921,887.15705
0.013573525,841.17527
0.013735128,795.19048
0.013896731,749.2027
0.014058335,703.21192
0.014219938,657.21814
0.014381542,611.22135
0.014543047,591.39249
0.014565093,588.28957
0.014587138,587.49978
0.014609184,586.71002
0.01463123,585.92028
0.014653276,585.47948
0.014675321,585.08571
0.014697367,584.69193
0.014719413,584.29815
0.014741459,583.90438
0.014763504,583.5106
0.01478555,583.11682
0.014807596,582.72305
0.014829642,582.32927
0.014851688,581.93549
0.014873733,581.54172
0.014895779,581.14794
0.014917825,580.75416
0.014939871,580.36039
0.014961916,579.96661
0.014983962,579.57283
0.015006008,579.17906
0.015028054,578.78528
0.015050099,578.3915
0.015072145,577.99773
0.015094191,577.60395
0.015116237,577.21018
0.015138282,576.8164
0.015160328,576.42262
0.015182374,576.02885
0.019391048,502.44148
0.019552648,502.25448
0.019714248,502.17859
0.019875848,502.1027
0.020037448,502.02681
0.020199048,501.95092
0.020360648,501.87503
0.020522248,501.79914
0.020683848,501.72325
0.020845448,501.64736
0.021007048,501.57147
0.021168648,501.49558
0.021330248,501.41969
0.021491848,501.3438
0.021653448,501.26791
0.021815048,501.19202
0.021976648,501.11613
0.022138248,501.04024
0.022299848,500.96435
0.022461448,500.88846
0.022623048,500.81257
0.022784648,500.73668
0.022946248,500.66079
0.023107848,500.5849
0.023269448,500.50901
0.023431048,500.43312
0.023592648,500.35723
0.023754248,500.28134
0.023915848,500.20545
0.024077448,500.12956
0.024239048,500.09507
0.024400648,500.08756
0.024562248,500.08465
0.024723848,500.08175
0.024885448,500.07885
0.025047048,500.07594
0.025208648,500.07304
0.025370248,500.07013
0.025531848,500.06723
0.025693448,500.06433
0.025855048,500.06142
0.026016648,500.05852
0.026178248,500.05562
0.026339848,500.05271
0.026501448,500.04981
0.026663048,500.0469
0.026824648,500.044
0.026986248,500.0411
0.027147848,500.03819
0.027309448,500.03529
0.027471048,500.03238
0.027632648,500.02948
0.027794248,500.02658
0.027955848,500.02367
0.028117448,500.02077
0.028279048,500.01787
0.028440648,500.01496
0.028602248,500.01206
0.028763848,500.00915
0.028925448,500.00625
0.029087048,500.00496
0.029248648,500.00455
0.029410248,500.0044
0.029571848,500.00425
0.029733448,500.0041
0.029895048,500.00396
0.030056648,500.00381
0.030218248,500.00366
0.030379848,500.00351
0.030541448,500.00336
0.030703048,500.00321
0.030864648,500.00306
0.031026248,500.00292
0.031187848,500.00277
0.031349448,500.00262
0.031511048,500.00247
0.031672648,500.00232
0.031834248,500.00217
0.031995848,500.00203
0.032157448,500.00188
0.032319048,500.00173
0.032480648,500.00158
0.032642248,500.00143
0.032803848,500.00128
0.032965448,500.00114
0.033127048,500.00099
0.033288648,500.00084
0.033450248,500.00069
0.033611848,500.00054
0.033773448,500.00039
0.033935048,500.00033
0.034096648,500.0003
0.034258248,500.00029
0.034419848,500.00028
0.034581448,500.00027
0.034743048,500.00026
0.034904648,500.00025
0.035066248,500.00024
0.035227848,500.00023
0.035389448,500.00022
0.035551048,500.00021
0.035712648,500.0002
0.035874248,500.00019
0.036035848,500.00018
0.036197448,500.00017
0.036359048,500.00016
0.036520648,500.00014
0.036682248,500.00013
0.036843848,500.00012
0.037005448,500.00011
0.037167048,500.0001
0.037328648,500.00009
0.037490248,500.00008
0.037651848,500.00007
0.037813448,500.00006
0.037975048,500.00005
0.038136648,500.00004
0.038298248,500.00003
0.038459848,500.00002
0.038621448,500.00001
0.038783048,500.00001
0.038944648,500
0.039106248,500
0.039267848,500
0.039429448,500
0.039591048,500
0.039752648,500
0.039914248,500
0.040075848,500
0.040237448,500
0.040399048,500
0.040560648,499.99999
0.040722248,499.99999
0.040883848,499.99999
0.041045448,499.99999
0.041207048,499.99999
0.041368648,499.99999
0.041530248,499.99999
0.041691848,499.99999
0.041853448,499.99999
0.042015048,499.99999
0.042176648,499.99999
0.042338248,499.99998
0.042499848,499.99998
0.042661448,499.99998
0.042823048,499.99998
0.042984648,499.99998
0.043146248,499.99998
0.043307848,499.99998
0.043469448,499.99998
0.043631048,499.99998
0.043792648,499.99998
0.043954248,499.99998
0.044115848,499.99998
0.044277448,499.99998
0.044439048,499.99998
0.044600648,499.99998
0.044762248,499.99998
0.044923848,499.99998
0.045085448,499.99998
0.045247048,499.99998
0.045408648,499.99998
0.045570248,499.99998
0.045731848,499.99998
0.045893448,499.99998
0.046055048,499.99998
0.046216648,499.99998
0.046378248,499.99998
0.046539848,499.99998
0.046701448,499.99998
0.046863048,499.99998
0.047024648,499.99998
0.047186248,499.99998
0.047347848,499.99998
0.047509448,499.99998
0.047671048,499.99998
0.047832648,499.99998
0.047994248,499.99998
0.048155848,499.99998
0.048317448,499.99998
0.048479048,499.99998
0.048640648,499.99998
0.048802248,499.99998
0.048963848,499.99998
0.049125448,499.99998
0.049287048,499.99998
0.049448648,499.99998
0.049610248,499.99998
0.049771848,499.99998
0.049933448,499.99998
0.050095048,499.99998
0.050256648,499.99998
0.050418248,499.99998
0.050579848,499.99998
0.050741448,499.99998
0.050903048,499.99998
0.051064648,499.99998
0.051226248,499.99998
0.051387848,499.99998
0.051549448,499.99998
0.051711048,499.99998
0.051872648,499.99998
0.052034248,499.99998
0.052195848,499.99998
0.052357448,499.99998
0.052519048,499.99998
0.052680648,499.99998
0.052842248,499.99998
0.053003848,499.99998
0.053165448,499.99998
0.053327048,499.99998
0.053488648,499.99998
0.053650248,499.99998
0.053811848,499.99998
0.053973448,499.99998
0.054135048,499.99998
0.054296648,499.99998
0.054458248,499.99998
0.054619848,499.99998
0.054781448,499.99998
0.054943048,499.99998
0.055104648,499.99998
0.055266248,499.99998
0.055427848,499.99998
0.055589448,499.99998
0.055751048,499.99998
0.055912648,499.99998
0.056074248,499.99998
0.056235848,499.99998
0.056397448,499.99998
0.056559048,499.99998
0.056720648,499.99998
0.056882248,499.99998
0.057043848,499.99998
0.057205448,499.99998
0.057367048,499.99998
0.057528648,499.99998
0.057690248,499.99998
0.057851848,499.99999
0.058013448,499.99999
0.058175048,499.99998
0.058336648,499.99998
0.058498248,499.99998
0.058659848,499.99999
0.058821448,499.99999
0.058983048,499.99999
0.059144648,499.99999
0.059306248,499.99999
0.059467848,499.99999
0.059629448,499.99999
0.059791048,499.99999
0.059952648,499.99999
0.060114248,499.99999
0.060275848,499.99999
0.060437448,499.99999
0.060599048,499.99999
0.060760648,499.99999
0.060922248,499.99999
0.061083848,499.99999
0.061245448,499.99999
0.061407048,499.99999
0.061568648,499.99999
0.061730248,499.99999
0.061891848,499.99999
0.062053448,499.99999
0.062215048,499.99999
0.062376648,499.99999
0.062538248,499.99999
0.062699848,499.99999
0.062861448,499.99999
0.063023048,499.99999
0.063184648,499.99999
0.063346248,499.99999
0.063507848,499.99999
0.063669448,499.99999
0.063831048,499.99999
0.063992648,499.99999
0.064154248,499.99999
0.064315848,499.99999
0.064477448,499.99999
0.064639048,499.99999
0.064800648,499.99999
0.064962248,499.99999
0.065123848,499.99999
0.065285448,499.99999
0.065447048,499.99999
0.065608648,499.99999
0.065770248,499.99999
0.065931848,499.99999
0.066093448,499.99999
0.066255048,499.99999
0.066416648,499.99999
0.066578248,499.99999
0.066739848,499.99999
0.066901448,499.99999
0.067063048,499.99999
0.067224648,499.99999
0.067386248,499.99999
0.067547848,499.99999
0.067709448,499.99999
0.067871048,499.99999
0.068032648,499.99999
0.068194248,499.99999
0.068355848,499.99999
0.068517448,499.99999
0.068679048,499.99999
0.068840648,499.99999
0.069002248,499.99999
0.069163848,499.99999
0.069325448,499.99999
0.069487048,499.99999
0.069648648,499.99999
0.069810248,499.99999
0.069971848,499.99999
0.070133448,499.99999
0.070295048,499.99999
0.070456648,499.99999
0.070618248,499.99999
0.070779848,499.99999
0.070941448,499.99999
0.071103048,499.99999
0.071264648,499.99999
0.071426248,499.99999
0.071587848,499.99999
0.071749448,499.99999
0.071911048,499.99999
0.072072648,499.99999
0.072234248,499.99999
0.072395848,499.99999
0.072557448,499.99999
0.072719048,499.99999
0.072880648,499.99999
0.073042248,499.99999
0.073203848,499.99999
0.073365448,499.99999
0.073527048,499.99999
0.073688648,499.99999
0.073850248,499.99999
0.074011848,499.99999
0.074173448,499.99999
0.074335048,499.99999
0.074496648,499.99999
0.074658248,499.99999
0.074819848,499.99999
0.074981448,499.99999
0.075143048,499.99999
0.075304648,499.99999
0.075466248,499.99999
0.075627848,499.99999
0.075789448,499.99999
0.075951048,499.99999
0.076112648,499.99999
0.076274248,499.99999
0.076435848,499.99999
0.076597448,499.99999
0.076759048,499.99999
0.076920648,499.99999
0.077082248,499.99999
0.077243848,499.99999
0.077405448,499.99999
0.077567048,499.99999
0.077728648,499.99999
0.077890248,499.99999
0.078051848,499.99999
0.078213448,499.99999
0.078375048,499.99999
0.078536648,499.99999
0.078698248,499.99999
0.078859848,499.99999
0.079021448,499.99999
0.079183048,499.99999
0.079344648,499.99999
0.079506248,499.99999
0.079667848,499.99999
0.079829448,499.99999
0.079991048,499.99999
0.080152648,499.99999
0.080314248,499.99999
0.080475848,499.99999
0.080637448,499.99999
0.080799048,499.99999
0.080960648,499.99999
0.081122248,499.99999
0.081283848,499.99999
0.081445448,499.99999
0.081607048,499.99999
0.081768648,499.99999
0.081930248,499.99999
0.082091848,499.99999
0.082253448,499.99999
0.082415048,499.99999
0.082576648,499.99999
0.082738248,499.99999
0.082899848,499.99999
0.083061448,499.99999
0.083223048,499.99999
0.083384648,499.99999
0.083546248,499.99999
0.083707848,499.99999
0.083869448,499.99999
0.084031048,499.99999
0.084192648,499.99999
0.084354248,499.99999
0.084515848,499.99999
0.084677448,499.99999
0.084839048,499.99999
0.085000648,499.99999
0.085162248,499.99999
0.085323848,499.99999
0.085485448,499.99999
0.085647048,499.99999
0.085808648,499.99999
0.085970248,499.99999
0.086131848,499.99999
0.086293448,499.99999
0.086455048,499.99999
0.086616648,499.99999
0.086778248,499.99999
0.086939848,499.99999
0.087101448,499.99999
0.087263048,499.99999
0.087424648,499.99999
0.087586248,499.99999
0.087747848,499.99999
0.087909448,499.99999
0.088071048,499.99999
0.088232648,499.99999
0.088394248,499.99999
0.088555848,499.99999
0.088717448,499.99999
0.088879048,499.99999
0.089040648,499.99999
0.089202248,499.99999
0.089363848,499.99999
0.089525448,499.99999
0.089687048,499.99999
0.089848648,499.99999
0.090010248,499.99999
0.090171848,499.99999
0.090333448,499.99999
0.090495048,499.99999
0.090656648,499.99999
0.090818248,499.99999
0.090979848,499.99999
0.091141448,499.99999
0.091303048,499.99999
0.091464648,499.99999
0.091626248,499.99999
0.091787848,499.99999
0.091949448,499.99999
0.092111048,499.99999
0.092272648,499.99999
0.092434248,499.99999
0.092595848,499.99999
0.092757448,499.99999
0.092919048,499.99999
0.093080648,499.99999
0.093242248,499.99999
0.093403848,499.99999
0.093565448,499.99999
0.093727048,499.99999
0.093888648,499.99999
0.094050248,499.99999
0.094211848,499.99999
0.094373448,499.99999
0.094535048,499.99999
0.094696648,499.99999
0.094858248,499.99999
0.095019848,499.99999
0.095181448,499.99999
0.095343048,499.99999
0.095504648,499.99999
0.095666248,499.99999
0.095827848,499.99999
0.095989448,499.99999
0.096151048,499.99999
0.096312648,499.99999
0.096474248,499.99999
0.096635848,499.99999
0.096797448,499.99999
0.096959048,499.99999
0.097120648,499.99999
0.097282248,499.99999
0.097443848,499.99999
0.097605448,499.99999
0.097767048,499.99999
0.097928648,499.99999
0.098090248,499.99999
0.098251848,499.99999
0.098413448,499.99999
0.098575048,499.99999
0.098736648,499.99999
0.098898248,499.99999
0.099059848,499.99999
0.099221448,499.99999
0.099383048,499.99999
0.099544648,499.99999
0.099706248,499.99999
0.099867848,499.99999
0.10002945,499.99999
0.10019105,499.99999
0.10035265,499.99999
0.10051425,499.99999
0.10067585,499.99999
0.10083745,499.99999
0.10099905,500
0.10116065,500
0.10132225,500
0.10148385,500
0.10164545,500
0.10180705,499.99999
0.10196865,500
0.10213025,500
0.10229185,500
0.10245345,500
0.10261505,500
0.10277665,500
0.10293825,500
0.10309985,500
0.10326145,500
0.10342305,500
0.10358465,500
0.10374625,500
0.10390785,500
0.10406945,500
0.10423105,500
0.10439265,500
0.10455425,500
0.10471585,500
0.10487745,500
0.10503905,500
0.10520065,500
0.10536225,500
0.10552385,500
0.10568545,500
0.10584705,500
0.10600865,500
0.10617025,500
0.10633185,500
0.10649345,500
0.10665505,500
0.10681665,500
0.10697825,500
0.10713985,500
0.10730145,500
0.10746305,500
0.10762465,500
0.10778625,500
0.10794785,500
0.10810945,500
0.10827105,500
0.10843265,500
0.10859425,500
0.10875585,500
0.10891745,500
0.10907905,500
0.10924065,500
0.10940225,500
0.10956385,500
0.10972545,500
0.10988705,500
0.11004865,500
0.11021025,500
0.11037185,500
0.11053345,500
0.11069505,500
0.11085665,500
0.11101825,500
0.11117985,500
0.11134145,500
0.11150305,500
0.11166465,500
0.11182625,500
0.11198785,500
0.11214945,500
0.11231105,500
0.11247265,500
0.11263425,500
0.11279585,500
0.11295745,500
0.11311905,500
0.11328065,500
0.11344225,500
0.11360385,500
0.11376545,500
0.11392705,500
0.11408865,500
0.11425025,500
0.11441185,500
0.11457345,500
0.11473505,500
0.11489665,500
0.11505825,500
0.11521985,500
0.11538145,500
0.11554305,500
0.11570465,500
0.11586625,500
0.11602785,500
0.11618945,500
0.11635105,500
0.11651265,500
0.11667425,500
0.11683585,500
0.11699745,500
0.11715905,500
0.11732065,500
0.11748225,500
0.11764385,500
0.11780545,500
0.11796705,500
0.11812865,500
0.11829025,500
0.11845185,500
0.11861345,500
0.11877505,500
0.11893665,500
0.11909825,500
0.11925985,500
0.11942145,500
0.11958305,500
0.11974465,500
0.11990625,500
0.12006785,500
0.12022945,500
0.12039105,500
0.12055265,500
0.12071425,500
0.12087585,500
0.12103745,500
0.12119905,500
0.12136065,500
0.12152225,500
0.12168385,500
0.12184545,500
0.12200705,500
0.12216865,500
0.12233025,500
0.12249185,500
0.12265345,500
0.12281505,500
0.12297665,500
0.12313825,500
0.12329985,500
0.12346145,500
0.12362305,500
0.12378465,500
0.12394625,500
0.12410785,500
0.12426945,500
0.12443105,500
0.12459265,500
0.12475425,500
0.12491585,500
0.12507745,500
0.12523905,500
0.12540065,500
0.12556225,500
0.12572385,500
0.12588545,500
0.12604705,500
0.12620865,500
0.12637025,500
0.12653185,500
0.12669345,500
0.12685505,500
0.12701665,500
0.12717825,500
0.12733985,500
0.12750145,500
0.12766305,500
0.12782465,500
0.12798625,500
0.12814785,500
0.12830945,500
0.12847105,500
0.12863265,500
0.12879425,500
0.12895585,500
0.12911745,500
0.12927905,500
0.12944065,500
0.12960225,500
0.12976385,500
0.12992545,500
0.13008705,500
0.13024865,500
0.13041025,500
0.13057185,500
0.13073345,500
0.13089505,500
0.13105665,500
0.13121825,500
0.13137985,500
0.13154145,500
0.13170305,500
0.13186465,500
0.13202625,500
0.13218785,500
0.13234945,500
0.13251105,500
0.13267265,500
0.13283425,500
0.13299585,500
0.13315745,500
0.13331905,500
0.13348065,500
0.13364225,500
0.13380385,500
0.13396545,500
0.13412705,500
0.13428865,500
0.13445025,500
0.13461185,500
0.13477345,500
0.13493505,500
0.13509665,500
0.13525825,500
0.13541985,500
0.13558145,500
0.13574305,500
0.13590465,500
0.13606625,500
0.13622785,500
0.13638945,500
0.13655105,500
0.13671265,500
0.13687425,500
0.13703585,500
0.13719745,500
0.13735905,500
0.13752065,500
0.13768225,500
0.13784385,500
0.13800545,500
0.13816705,500
0.13832865,500
0.13849025,500
0.13865185,500
0.13881345,500
0.13897505,500
0.13913665,500
0.13929825,500
0.13945985,500
0.13962145,500
0.13978305,500
0.13994465,500
0.14010625,500
0.14026785,500
0.14042945,500
0.14059105,500
0.14075265,500
0.14091425,500
0.14107585,500
0.14123745,500
0.14139905,500
0.14156065,500
0.14172225,500
0.14188385,500
0.14204545,500
0.14220705,500
0.14236865,500
0.14253025,500
0.14269185,500
0.14285345,500
0.14301505,500
0.14317665,500
0.14333825,500
0.14349985,500
0.14366145,500
0.14382305,500
0.14398465,500
0.14414625,500
0.14430785,500
0.14446945,500
0.14463105,500
0.14479265,500
0.14495425,500
0.14511585,500
0.14527745,500
0.14543905,500
0.14560065,500
0.14576225,500
0.14592385,500
0.14608545,500
0.14624705,500
0.14640865,500
0.14657025,500
0.14673185,500
0.14689345,500
0.14705505,500
0.14721665,500
0.14737825,500
0.14753985,500
0.14770145,500
0.14786305,500
0.14802465,500
0.14818625,500
0.14834785,500
0.14850945,500
0.14867105,500
0.14883265,500
0.14899425,500
0.14915585,500
0.14931745,500
0.14947905,500
0.14964065,500
0.14980225,500
0.14996385,500
0.15012545,500
0.15028705,500
0.15044865,500
0.15061025,500
0.15077185,500
0.15093345,500
0.15109505,500
0.15125665,500
0.15141825,500
0.15157985,500
0.15174145,500
0.15190305,500
0.15206465,500
0.15222625,500
0.15238785,500
0.15254945,500
0.15271105,500
0.15287265,500
0.15303425,500
0.15319585,500
0.15335745,500
0.15351905,500
0.15368065,500
0.15384225,500
0.15400385,500
0.15416545,500
0.15432705,500
0.15448865,500
0.15465025,500
0.15481185,500
0.15497345,500
0.15513505,500
0.15529665,500
0.15545825,500
0.15561985,500
0.15578145,500
0.15594305,500
0.15610465,500
0.15626625,500
0.15642785,500
0.15658945,500
0.15675105,500
0.15691265,500
0.15707425,500
0.15723585,500
0.15739745,500
0.15755905,500
0.15772065,500
0.15788225,500
0.15804385,500
0.15820545,500
0.15836705,500
0.15852865,500
0.15869025,500
0.15885185,500
0.15901345,500
0.15917505,500
0.15933665,500
0.15949825,500
0.15965985,500
0.15982145,500
0.15998305,500
0.16014465,500
0.16030625,500
0.16046785,500
0.16062945,500
0.16079105,500
0.16095265,500
0.16111425,500
0.16127585,500
0.16143745,500
0.16159905,500
0.16176065,500
0.16192225,500
0.16208385,500
0.16224545,500
0.16240705,500
0.16256865,500
0.16273025,500
0.16289185,500
0.16305345,500
0.16321505,500
0.16337665,500
0.16353825,500
0.16369985,500
0.16386145,500
0.16402305,500
0.16418465,500
0.16434625,500
0.16450785,500
0.16466945,500
0.16483105,500
0.16499265,500
0.16515425,500
0.16531585,500
0.16547745,500
0.16563905,500
0.16580065,500
0.16596225,500
0.16612385,500
0.16628545,500
0.16644705,500
0.16660865,500
0.16677025,500
0.16693185,500
0.16709345,500
0.16725505,500
0.16741665,500
0.16757825,500
0.16773985,500
0.16790145,500
0.16806305,500
0.16822465,500
0.16838625,500
0.16854785,500
0.16870945,500
0.16887105,500
0.16903265,500
0.16919425,500
0.16935585,500
0.16951745,500
0.16967905,500
0.16984065,500
0.17000225,500
0.17016385,500
0.17032545,500
0.17048705,500
0.17064865,500
0.17081025,500
0.17097185,500
0.17113345,500
0.17129505,500
0.17145665,500
0.17161825,500
0.17177985,500
0.17194145,500
0.17210305,500
0.17226465,500
0.17242625,500
0.17258785,500
0.17274945,500
0.17291105,500
0.17307265,500
0.17323425,500
0.17339585,500
0.17355745,500
0.17371905,500
0.17388065,500
0.17404225,500
0.17420385,500
0.17436545,500
0.17452705,500
0.17468865,500
0.17485025,500
0.17501185,500
0.17517345,500
0.17533505,500
0.17549665,500
0.17565825,500
0.17581985,500
0.17598145,500
0.17614305,500
0.17630465,500
0.17646625,500
0.17662785,500
0.17678945,500
0.17695105,500
0.17711265,500
0.17727425,500
0.17743585,500
0.17759745,500
0.17775905,500
0.17792065,500
0.17808225,500
0.17824385,500
0.17840545,500
0.17856705,500
0.17872865,500
0.17889025,500
0.17905185,500
0.17921345,500
0.17937505,500
0.17953665,500
0.17969825,500
0.17985985,500
0.18002145,500
0.18018305,500
0.18034465,500
0.18050625,500
0.18066785,500
0.18082945,500
0.18099105,500
0.18115265,500
0.18131425,500
0.18147585,500
0.18163745,500
0.18179905,500
0.18196065,500
0.18212225,500
0.18228385,500
0.18244545,500
0.18260705,500
0.18276865,500
0.18293025,500
0.18309185,500
0.18325345,500
0.18341505,500
0.18357665,500
0.18373825,500
0.18389985,500
0.18406145,500
0.18422305,500
0.18438465,500
0.18454625,500
0.18470785,500
0.18486945,500
0.18503105,500
0.18519265,500
0.18535425,500
0.18551585,500
0.18567745,500
0.18583905,500
0.18600065,500
0.18616225,500
0.18632385,500
0.18648545,500
0.18664705,500
0.18680865,500
0.18697025,500
0.18713185,500
0.18729345,500
0.18745505,500
0.18761665,500
0.18777825,500
0.18793985,500
0.18810145,500
0.18826305,500
0.18842465,500
0.18858625,500
0.18874785,500
0.18890945,500
0.18907105,500
0.18923265,500
0.18939425,500
0.18955585,500
0.18971745,500
0.18987905,500
0.19004065,500
0.19020225,500
0.19036385,500
0.19052545,500
0.19068705,500
0.19084865,500
0.19101025,500
0.19117185,500
0.19133345,500
0.19149505,500
0.19165665,500
0.19181825,500
0.19197985,500
0.19214145,500
0.19230305,500
0.19246465,500
0.19262625,500
0.19278785,500
0.19294945,500
0.19311105,500
0.19327265,500
0.19343425,500
0.19359585,500
0.19375745,500
0.19391905,500
0.19408065,500
0.19424225,500
0.19440385,500
0.19456545,500
0.19472705,500
0.19488865,500
0.19505025,500
0.19521185,500
0.19537345,500
0.19553505,500
0.19569665,500
0.19585825,500
0.19601985,500
0.19618145,500
0.19634305,500
0.19650465,500
0.19666625,500
0.19682785,500
0.19698945,500
0.19715105,500
0.19731265,500
0.19747425,500
0.19763585,500
0.19779745,500
0.19795905,500
0.19812065,500
0.19828225,500
0.19844385,500
0.19860545,500
0.19876705,500
0.19892865,500
0.19909025,500
0.19925185,500
0.19941345,500
0.19957505,500
0.19973665,500
0.19989825,500
0.20005985,500
0.20022145,500
0.20038305,500
0.20054465,500
0.20070625,500
0.20086785,500
0.20102945,500
0.20119105,500
0.20135265,500
0.20151425,500
0.20167585,500
0.20183745,500
0.20199905,500
0.20216065,500
0.20232225,500
0.20248385,500
0.20264545,500
0.20280705,500
0.20296865,500
0.20313025,500
0.20329185,500
0.20345345,500
0.20361505,500
0.20377665,500
0.20393825,500
0.20409985,500
0.20426145,500
0.20442305,500
0.20458465,500
0.20474625,500
0.20490785,500
0.20506945,500
0.20523105,500
0.20539265,500
0.20555425,500
0.20571585,500
0.20587745,500
0.20603905,500
0.20620065,500
0.20636225,500
0.20652385,500
0.20668545,500
0.20684705,500
0.20700865,500
0.20717025,500
0.20733185,500
0.20749345,500
0.20765505,500
0.20781665,500
0.20797825,500
0.20813985,500
0.20830145,500
0.20846305,500
0.20862465,500
0.20878625,500
0.20894785,500
0.20910945,500
0.20927105,500
0.20943265,500
0.20959425,500
0.20975585,500
0.20991745,500
0.21007905,500
0.21024065,500
0.21040225,500
0.21056385,500
0.21072545,500
0.21088705,500
0.21104865,500
0.21121025,500
0.21137185,500
0.21153345,500
0.21169505,500
0.21185665,500
0.21201825,500
0.21217985,500
0.21234145,500
0.21250305,500
0.21266465,500
0.21282625,500
0.21298785,500
0.21314945,500
0.21331105,500
0.21347265,500
0.21363425,500
0.21379585,500
0.21395745,500
0.21411905,500
0.21428065,500
0.21444225,500
0.21460385,500
0.21476545,500
0.21492705,500
0.21508865,500
0.21525025,500
0.21541185,500
0.21557345,500
0.21573505,500
0.21589665,500
0.21605825,500
0.21621985,500
0.21638145,500
0.21654305,500
0.21670465,500
0.21686625,500
0.21702785,500
0.21718945,500
0.21735105,500
0.21751265,500
0.21767425,500
0.21783585,500
0.21799745,500
0.21815905,500
0.21832065,500
0.21848225,500
0.21864385,500
0.21880545,500
0.21896705,500
0.21912865,500
0.21929025,500
0.21945185,500
0.21961345,500
0.21977505,500
0.21993665,500
0.22009825,500
0.22025985,500
0.22042145,500
0.22058305,500
0.22074465,500
0.22090625,500
0.22106785,500
0.22122945,500
0.22139105,500
0.22155265,500
0.22171425,500
0.22187585,500
0.22203745,500
0.22219905,500
0.22236065,500
0.22252225,500
0.22268385,500
0.22284545,500
0.22300705,500
0.22316865,500
0.22333025,500
0.22349185,500
0.22365345,500
0.22381505,500
0.22397665,500
0.22413825,500
0.22429985,500
0.22446145,500
0.22462305,500
0.22478465,500
0.22494625,500
0.22510785,500
0.22526945,500
0.22543105,500
0.22559265,500
0.22575425,500
0.22591585,500
0.22607745,500
0.22623905,500
0.22640065,500
0.22656225,500
0.22672385,500
0.22688545,500
0.22704705,500
0.22720865,500
0.22737025,500
0.22753185,500
0.22769345,500
0.22785505,500
0.22801665,500
0.22817825,500
0.22833985,500
0.22850145,500
0.22866305,500
0.22882465,500
0.22898625,500
0.22914785,500
0.22930945,500
0.22947105,500
0.22963265,500
0.22979425,500
0.22995585,500
0.23011745,500
0.23027905,500
0.23044065,500
0.23060225,500
0.23076385,500
0.23092545,500
0.23108705,500
0.23124865,500
0.23141025,500
0.23157185,500
0.23173345,500
0.23189505,500
0.23205665,500
0.23221825,500
0.23237985,500
0.23254145,500
0.23270305,500
0.23286465,500
0.23302625,500
0.23318785,500
0.23334945,500
0.23351105,500
0.23367265,500
0.23383425,500
0.23399585,500
0.23415745,500
0.23431905,500
0.23448065,500
0.23464225,500
0.23480385,500
0.23496545,500
0.23512705,500
0.23528865,500
0.23545025,500
0.23561185,500
0.23577345,500
0.23593505,500
0.23609665,500
0.23625825,500
0.23641985,500
0.23658145,500
0.23674305,500
0.23690465,500
0.23706625,500
0.23722785,500
0.23738945,500
0.23755105,500
0.23771265,500
0.23787425,500
0.23803585,500
0.23819745,500
0.23835905,500
0.23852065,500
0.23868225,500
0.23884385,500
0.23900545,500
0.23916705,500
0.23932865,500
0.23949025,500
0.23965185,500
0.23981345,500
0.23997505,500
0.24013665,500
0.24029825,500
0.24045985,500
0.24062145,500
0.24078305,500
0.24094465,500
0.24110625,500
0.24126785,500
0.24142945,500
0.24159105,500
0.24175265,500
0.24191425,500
0.24207585,500
0.24223745,500
0.24239905,500
0.24256065,500
0.24272225,500
0.24288385,500
0.24304545,500
0.24320705,500
0.24336865,500
0.24353025,500
0.24369185,500
0.24385345,500
0.24401505,500
0.24417665,500
0.24433825,500
0.24449985,500
0.24466145,500
0.24482305,500
0.24498465,500
0.24514625,500
0.24530785,500
0.24546945,500
0.24563105,500
0.24579265,500
0.24595425,500
0.24611585,500
0.24627745,500
0.24643905,500
0.24660065,500
0.24676225,500
0.24692385,500
0.24708545,500
0.24724705,500
0.24740865,500
0.24757025,500
0.24773185,500
0.24789345,500
0.24805505,500
0.24821665,500
0.24837825,500
0.24853985,500
0.24870145,500
0.24886305,500
0.24902465,500
0.24918625,500
0.24934785,500
0.24950945,500
0.24967105,500
0.24983265,500
0.24999425,500
0.25015585,500
0.25031745,500
0.25047905,500
0.25064065,500
0.25080225,500
0.25096385,500
0.25112545,500
0.25128705,500
0.25144865,500
0.25161025,500
0.25177185,500
0.25193345,500
0.25209505,500
0.25225665,500
0.25241825,500
0.25257985,500
0.25274145,500
0.25290305,500
0.25306465,500
0.25322625,500
0.25338785,500
0.25354945,500
0.25371105,500
0.25387265,500
0.25403425,500
0.25419585,500
0.25435745,500
0.25451905,500
0.25468065,500
0.25484225,500
0.25500385,500
0.25516545,500
0.25532705,500
0.25548865,500
0.25565025,500
0.25581185,500
0.25597345,500
0.25613505,500
0.25629665,500
0.25645825,500
0.25661985,500
0.25678145,500
0.25694305,500
0.25710465,500
0.25726625,500
0.25742785,500
0.25758945,500
0.25775105,500
0.25791265,500
0.25807425,500
0.25823585,500
0.25839745,500
0.25855905,500
0.25872065,500
0.25888225,500
0.25904385,500
0.25920545,500
0.25936705,500
0.25952865,500
0.25969025,500
0.25985185,500
0.26001345,500
0.26017505,500
0.26033665,500
0.26049825,500
0.26065985,500
0.26082145,500
0.26098305,500
0.26114465,500
0.26130625,500
0.26146785,500
0.26162945,500
0.26179105,500
0.26195265,500
0.26211425,500
0.26227585,500
0.26243745,500
0.26259905,500
0.26276065,500
0.26292225,500
0.26308385,500
0.26324545,500
0.26340705,500
0.26356865,500
0.26373025,500
0.26389185,500
0.26405345,500
0.26421505,500
0.26437665,500
0.26453825,500
0.26469985,500
0.26486145,500
0.26502305,500
0.26518465,500
0.26534625,500
0.26550785,500
0.26566945,500
0.26583105,500
0.26599265,500
0.26615425,500
0.26631585,500
0.26647745,500
0.26663905,500
0.26680065,500
0.26696225,500
0.26712385,500
0.26728545,500
0.26744705,500
0.26760865,500
0.26777025,500
0.26793185,500
0.26809345,500
0.26825505,500
0.26841665,500
0.26857825,500
0.26873985,500
0.26890145,500
0.26906305,500
0.26922465,500
0.26938625,500
0.26954785,500
0.26970945,500
0.26987105,500
0.27003265,500
0.27019425,500
0.27035585,500
0.27051745,500
0.27067905,500
0.27084065,500
0.27100225,500
0.27116385,500
0.27132545,500
0.27148705,500
0.27164865,500
0.27181025,500
0.27197185,500
0.27213345,500
0.27229505,500
0.27245665,500
0.27261825,500
0.27277985,500
0.27294145,500
0.27310305,500
0.27326465,500
0.27342625,500
0.27358785,500
0.27374945,500
0.27391105,500
0.27407265,500
0.27423425,500
0.27439585,500
0.27455745,500
0.27471905,500
0.27488065,500
0.27504225,500
0.27520385,500
0.27536545,500
0.27552705,500
0.27568865,500
0.27585025,500
0.27601185,500
0.27617345,500
0.27633505,500