distance,U_0,U_1,U_2
0,5.253616,-0.00056639625,56.062211
0.00016227453,6.4365269,0.012996006,57.091906
0.00032454905,7.570347,0.027967766,57.837346
0.00048682358,8.7597287,0.039921722,58.652131
0.00064909811,10.004967,0.048808716,59.536848
0.00081137264,11.306056,0.054595622,60.491711
0.00097364716,12.662694,0.057265701,61.516571
0.0011359217,14.074297,0.056818515,62.610917
0.0012981962,15.540014,0.053269437,63.773903
0.0014604707,17.058756,0.04664878,65.004369
0.0016227453,18.629221,0.037000612,66.30088
0.0017850198,20.24993,0.024381328,67.66176
0.0019472943,21.919255,0.0088580557,69.08513
0.0021095689,23.4162,-0.00018230043,69.842974
0.0022718434,24.735424,-0.0025058942,69.919737
0.0024341179,25.04343,0.023888836,68.41576
0.0025963924,23.705814,0.060631945,64.452601
0.002758667,22.360215,0.080190027,60.467052
0.0029209415,21.00558,0.100104,56.456158
0.003083216,19.640619,0.12042694,52.416309
0.0032454905,18.263737,0.14122507,48.343025
0.0034077651,16.87291,0.16258267,44.230639
0.0035700396,15.465526,0.18460939,40.071821
0.0036507187,14.755849,0.19596614,37.97623
0.0036985868,14.871436,0.17849714,38.706056
0.0037464548,14.987495,0.16107228,39.432651
0.0037943229,15.104003,0.1436894,40.156147
0.003842191,15.220941,0.12634645,40.876671
0.0038900591,15.338287,0.10904152,41.59434
0.0039379271,15.456025,0.091772806,42.309265
0.0039857952,15.574136,0.074538624,43.021552
0.0040336633,15.692605,0.057337376,43.731301
0.0040815314,15.811417,0.040167562,44.438605
0.0041293994,15.930557,0.023027764,45.143553
0.0041772675,15.970703,0.0072937742,45.45952
0.0042251356,15.883581,-0.0062277712,45.152876
0.0042730036,15.796269,-0.019792912,44.845905
0.0043208717,15.708766,-0.033402307,44.538605
0.0043687398,15.62107,-0.047056632,44.230971
0.0044166079,15.533179,-0.060756577,43.923001
0.0044644759,15.445091,-0.074502851,43.614691
0.004512344,15.356804,-0.088296179,43.306038
0.0045602121,15.268316,-0.1021373,42.997039
0.0046080802,15.179625,-0.11602698,42.68769
0.0046559482,15.090729,-0.129966,42.377988
0.0047038163,15.001626,-0.14395516,42.067929
0.0047516844,14.912313,-0.15799528,41.757508
0.0047995525,14.822789,-0.17208719,41.446724
0.0048474205,14.733051,-0.18623177,41.135571
0.0048952886,14.643096,-0.2004299,40.824046
0.0049431567,14.552924,-0.21468249,40.512144
0.0049910248,14.46253,-0.22899046,40.199863
0.0050388928,14.371913,-0.23292993,39.887196
0.0050737405,14.30578,-0.23058361,39.659294
0.0051218228,14.193166,-0.21885904,39.305615
0.0051699052,14.080398,-0.2071151,38.951669
0.0052179876,13.967472,-0.19535146,38.597452
0.0052660699,13.854387,-0.18356777,38.24296
0.0053141523,13.74114,-0.17176367,37.888191
0.0053622347,13.627729,-0.15993878,37.533138
0.005410317,13.514151,-0.14809272,37.1778
0.0054583994,13.400405,-0.1362251,36.822171
0.0055064818,13.286487,-0.12433551,36.466247
0.0055545641,13.172396,-0.11242354,36.110024
0.0056026465,13.058128,-0.10048875,35.753498
0.0056507288,12.94368,-0.088530696,35.396663
0.0056988112,12.829051,-0.076548925,35.039515
0.0057468936,12.714237,-0.064542963,34.68205
0.0057949759,12.599235,-0.052512321,34.324262
0.0058430583,12.484042,-0.040456496,33.966146
0.0058911407,12.368656,-0.028374968,33.607696
0.005939223,12.253072,-0.016267199,33.248908
0.0059873054,12.137289,-0.0041326351,32.889776
0.0060353878,11.875754,-0.0026154795,32.574259
0.0060834701,11.550906,-0.0059368919,32.281512
0.0061315525,11.230896,-0.0092307397,31.992865
0.0061796348,10.915768,-0.012496751,31.708358
0.0062277172,10.605565,-0.015734669,31.428026
0.0062757996,10.300327,-0.018944249,31.151904
0.0063238819,10.000091,-0.022125263,30.880025
0.0063719643,9.7048928,-0.025277501,30.612419
0.0064200467,9.4147638,-0.028400769,30.349114
0.006468129,9.1297329,-0.031494891,30.090135
0.0065427942,8.6950766,-0.036254127,29.694729
0.0066597009,8.7530086,-0.035213468,29.418918
0.0067766075,8.8128607,-0.034105502,29.14054
0.0068935142,8.8747003,-0.032927619,28.859507
0.0070104209,8.9385982,-0.031677084,28.57573
0.0071273275,9.0046286,-0.030351027,28.289114
0.0072442342,9.072869,-0.028946434,27.999562
0.0073611409,9.1434008,-0.027460143,27.70697
0.0074780476,9.2163091,-0.02588883,27.411231
0.0075949542,9.2916834,-0.024229004,27.112232
0.0077118609,9.3696175,-0.018000505,26.809857
0.0078287676,9.45021,-0.010430622,26.503982
0.0079456743,9.5335641,-0.0027566078,26.194479
0.0080625809,9.2517749,-0.010721095,25.792345
0.0081794876,8.8998672,-0.015631437,25.37644
0.0082963943,8.5499194,-0.013036044,24.965849
0.0084133009,8.2020243,-0.010573558,24.560796
0.0085302076,7.8562794,-0.0082493522,24.161512
0.0086471143,7.5127868,-0.006068993,23.768241
0.008764021,7.1716535,-0.004038239,23.381232
0.0088809276,6.8329914,-0.0021630336,23.000745
0.0089978343,6.4731636,-0.00082287724,22.610623
0.009114741,6.0409805,-0.00084946339,22.176105
0.0092316476,5.6282036,-0.00087219773,21.762324
0.0093485543,5.2349096,-0.00089106958,21.369356
0.009465461,4.8610953,-0.00090608366,20.997193
0.0095823677,4.5066746,-0.00091726062,20.64574
0.0096992743,4.1714769,-0.00092463713,20.31481
0.009816181,3.8552481,-0.00092826575,20.004127
0.0099330877,3.5576519,-0.0009282144,19.713329
0.0099680956,3.4739919,-0.00092712174,19.63207
0.0099743975,3.4776258,-0.00092135423,19.630354
0.0099806994,3.4812639,-0.00091558321,19.628634
0.0099870013,3.484906,-0.00090980868,19.62691
0.0099933032,3.4885522,-0.00090403062,19.625184
0.0099996051,3.4922025,-0.00089824904,19.623454
0.010005907,3.4958569,-0.00089246392,19.62172
0.010012209,3.4995154,-0.00088667528,19.619984
0.010018511,3.503178,-0.00088088309,19.618243
0.010024813,3.5068448,-0.00087508737,19.6165
0.010031115,3.5105156,-0.0008692881,19.614753
0.010037417,3.5141906,-0.00086348528,19.613002
0.010043718,3.5178697,-0.0008576789,19.611248
0.01005002,3.5215529,-0.00085186897,19.609491
0.010056322,3.5252403,-0.00084605548,19.60773
0.010062624,3.5289318,-0.00084023842,19.605966
0.010068926,3.5326275,-0.00083441779,19.604198
0.010075228,3.5254151,-0.0010572615,19.595139
0.01008153,3.5154036,-0.001338671,19.58422
0.010087832,3.5053972,-0.0016198369,19.573316
0.010094134,3.495396,-0.0019007587,19.562428
0.010100436,3.4854,-0.0021814362,19.551557
0.010106737,3.4754091,-0.0024618692,19.540701
0.010113039,3.4654234,-0.0027420571,19.529861
0.010119341,3.4554428,-0.0030219999,19.519037
0.010125643,3.4454674,-0.0033016971,19.508229
0.010131945,3.4354973,-0.0035811486,19.497437
0.010138247,3.4255323,-0.0038603539,19.486662
0.010144549,3.4155725,-0.0041393128,19.475902
0.010150851,3.4056179,-0.0044180249,19.465158
0.010157189,3.3956105,-0.0046981149,19.454368
0.010321233,3.1168897,-0.0040540135,19.157145
0.010485276,2.8420337,-0.0031836092,18.871906
0.010649319,2.5711814,-0.0020803565,18.599004
0.010813362,2.3067826,-0.0011197345,18.335693
0.010977405,2.0699105,-0.0037632499,18.054165
0.011141448,1.8403233,-0.0067714063,17.779623
0.011305491,1.618057,-0.010145766,17.512108
0.011469534,1.4031344,-0.013887315,17.251649
0.011633577,1.1955647,-0.017996452,16.998261
0.011797621,0.99534312,-0.022472976,16.751946
0.011961664,0.80245058,-0.027316083,16.512692
0.012125707,0.61685363,-0.032524367,16.280474
0.01228975,0.43850442,-0.038095826,16.05525
0.012453793,0.26734089,-0.044027879,15.836967
0.012617836,0.10328698,-0.046255082,15.625558
0.012781879,-0.053747065,-0.039333167,15.420941
0.012945922,-0.20386416,-0.032739339,15.223022
0.013109965,-0.34717934,-0.026468055,15.031695
0.013274009,-0.48381925,-0.020513223,14.846841
0.013438052,-0.61392137,-0.01486824,14.668334
0.013602095,-0.73763306,-0.0095260385,14.496033
0.013766138,-0.8551106,-0.0044791307,14.329792
0.013930181,-0.96651817,0.00028034164,14.169455
0.014094224,-0.98657986,0.00076829322,14.023152
0.014258267,-0.99703438,0.00080733947,13.87908
0.01442231,-1.0074709,0.00084589406,13.735908
0.014586353,-1.017889,0.00088394921,13.593652
0.014750397,-1.0282885,0.00092149702,13.452328
0.01491444,-1.0386689,0.00095852948,13.311951
0.015022392,-1.0454873,0.00098255506,13.220206
0.015084265,-1.0499926,0.00095076006,13.16272
0.015146137,-1.0544947,0.00091890643,13.105392
0.01520801,-1.0589936,0.00088699383,13.048223
0.015269883,-1.0634893,0.00085502194,12.991213
0.015331756,-1.0679816,0.00082299042,12.934365
0.015393628,-1.0724707,0.00079089895,12.87768
0.015455501,-1.0769564,0.00075874719,12.821158
0.015517374,-1.0814388,0.00072653481,12.7648
0.015579246,-1.0791275,0.00076573675,12.718484
0.015641119,-1.0756026,0.00081767134,12.673962
0.015702992,-1.0720771,0.00086958016,12.629445
0.015764865,-1.0685509,0.00092146304,12.584933
0.015826737,-1.0650242,0.00097331978,12.540426
0.01588861,-1.0614967,0.0010251502,12.495925
0.015950483,-1.0579687,0.0010769541,12.45143
0.016012355,-1.05444,0.0011287313,12.40694
0.016074228,-1.0509107,0.0011804816,12.362455
0.016136101,-1.0473808,0.0012322049,12.317975
0.016197974,-1.0438502,0.0012839008,12.273502
0.016259846,-1.040319,0.0013355693,12.229033
0.016321719,-1.0367872,0.0013872101,12.18457
0.016383592,-1.0332547,0.001438823,12.140113
0.016445464,-1.0297216,0.0014904079,12.095661
0.016507337,-1.0261878,0.0015419644,12.051215
0.01656921,-1.0226534,0.0015934925,12.006774
0.016631083,-1.0191183,0.0016449918,11.962339
0.016692955,-1.0155826,0.0016964622,11.91791
0.016754828,-1.0120462,0.0017479035,11.873486
0.01677005,-1.011176,0.0017605519,11.862558
0.016873975,-1.0204878,0.0017947072,11.751357
0.0169779,-1.0299999,0.0018283073,11.640194
0.017081825,-1.0397182,0.001861337,11.529072
0.01718575,-1.0496486,0.0018937804,11.417992
0.017289675,-1.0597976,0.0019256208,11.306955
0.017393599,-1.0701716,0.0019568413,11.195963
0.017497524,-1.0807776,0.0018915489,11.085018
0.017601449,-1.0916226,0.0017966863,10.974121
0.017705374,-1.1027139,0.0017012975,10.863275
0.017809299,-1.1140592,0.0016053661,10.752482
0.017913224,-1.1256665,0.0015088752,10.641743
0.018017149,-1.1375441,0.0014118071,10.531061
0.018121074,-1.1497005,0.0013141432,10.420439
0.018224999,-1.1621449,0.0012158646,10.309878
0.018328924,-1.1748864,0.0011169513,10.199382
0.018432849,-1.1879349,0.0010173824,10.088953
0.018536774,-1.2013004,0.00091713656,9.9785937
0.018640698,-1.2149937,0.00081619115,9.868308
0.018744623,-1.2290256,0.00071452278,9.7580987
0.018848548,-1.2356123,0.00069023089,9.6555355
0.018952473,-1.2120874,0.00096963336,9.5824988
0.019056398,-1.1885448,0.0012475066,9.5092593
0.019160323,-1.1649843,0.0015238284,9.4358142
0.019264248,-1.1414057,0.0017985757,9.3621604
0.019368173,-1.1178088,0.002071725,9.288295
0.019472098,-1.0941934,0.0023432521,9.2142148
0.019576023,-1.0705591,0.0026131321,9.1399164
0.019679948,-1.0469058,0.0028813396,9.0653966
0.019783873,-1.0232332,0.0031478481,8.990652
0.019895349,-0.9978195,0.0034318712,8.9102311
0.020057959,-0.96706164,0.0033080456,8.8039445
0.02022057,-0.93626639,0.0031814749,8.6972036
0.02038318,-0.90543298,0.0030520979,8.5899981
0.02054579,-0.87456061,0.0029198512,8.4823167
0.0207084,-0.84364846,0.0027846682,8.3741482
0.02087101,-0.81269566,0.0026464799,8.2654806
0.02103362,-0.78170134,0.002505214,8.1563014
0.02119623,-0.75066455,0.0023607951,8.0465975
0.021358841,-0.71958435,0.0022131442,7.9363553
0.021521451,-0.68845973,0.0020291895,7.8255606
0.021684061,-0.65728964,0.0015809996,7.7141984
0.021846671,-0.62607299,0.0011379656,7.6022531
0.022009281,-0.59480864,0.0007002302,7.4897081
0.022171891,-0.5764508,0.0018802442,7.4346728
0.022334502,-0.5592305,0.002745421,7.3844863
0.022497112,-0.54189273,0.0021287866,7.3335281
0.022659722,-0.52443535,0.0015040886,7.2817839
0.022822332,-0.50685616,0.00087118149,7.229239
0.022984942,-0.48922995,0.00023623329,7.1763195
0.023147552,-0.48001273,0.00029253421,7.1714373
0.023310162,-0.47079253,0.00034928501,7.1664694
0.023472773,-0.46156934,0.00040648566,7.1614156
0.023635383,-0.4523432,0.00046413616,7.1562758
0.023797993,-0.44311409,0.0005222365,7.1510498
0.023960603,-0.43388204,0.00058078668,7.1457377
0.024123213,-0.42464705,0.00063978674,7.1403392
0.024285823,-0.41540913,0.00069923671,7.1348543
0.024448433,-0.4061683,0.00075913663,7.1292828
0.024611044,-0.39692457,0.00081948658,7.1236247
0.024759626,-0.38847562,0.00087504154,7.1183753
0.024916893,-0.37913466,0.00077102645,7.1126296
0.02507416,-0.36979087,0.0006676105,7.1067989
0.025231428,-0.36044425,0.00056479421,7.1008829
0.025388695,-0.35109481,0.0004625781,7.0948815
0.025545963,-0.34174256,0.00036096272,7.0887947
0.02570323,-0.33238752,0.00025994862,7.0826224
0.025860497,-0.32485723,0.00047959041,7.081149
0.026017765,-0.31825413,0.00086219342,7.0820386
0.026175032,-0.3116389,0.0012429975,7.0828388
0.026332299,-0.30501152,0.0016220026,7.0835495
0.026489567,-0.29837199,0.0019992089,7.0841707
0.026646834,-0.2917203,0.0023746162,7.0847022
0.026804101,-0.28505645,0.0027482245,7.0851439
0.026961369,-0.27838042,0.0031200334,7.0854958
0.027118636,-0.27169221,0.0034900429,7.0857577
0.027275903,-0.2649918,0.0033831838,7.0859295
0.027433171,-0.25827919,0.0031246204,7.086011
0.027590438,-0.25155437,0.0028647274,7.0860022
0.027747705,-0.24481732,0.0026035036,7.085903
0.027904973,-0.23806803,0.0023409476,7.0857132
0.02806224,-0.23130649,0.0020770584,7.0854326
0.028219507,-0.22453269,0.0018118344,7.0850612
0.028376775,-0.21774662,0.0015452744,7.0845987
0.028534042,-0.21094826,0.0012773768,7.0840451
0.028691309,-0.2041376,0.0010081403,7.0834003
0.028848577,-0.19731463,0.00073756335,7.082664
0.029005844,-0.19047933,0.00046564427,7.0818361
0.029163111,-0.18363168,0.00019238151,7.0809164
0.029320379,-0.17855574,7.5045855e-05,7.0844524
0.029611433,-0.17147497,6.1384034e-05,7.0968081
0.02970757,-0.16921522,6.7079047e-05,7.1002112
0.029803707,-0.16695628,7.2764413e-05,7.1036036
0.029899844,-0.16469814,7.8440146e-05,7.1069855
0.02999598,-0.16318872,0.00013838129,7.1106787
0.030092117,-0.16180081,0.00020707901,7.1144166
0.030188254,-0.16041263,0.00027569649,7.1181476
0.030284391,-0.15902418,0.0003442338,7.1218716
0.030380528,-0.15763546,0.00041269107,7.1255886
0.030476665,-0.15624647,0.00048106837,7.1292987
0.030572801,-0.15485721,0.00054936581,7.1330018
0.030668938,-0.15346768,0.00061758348,7.1366979
0.030765075,-0.15207788,0.00068572148,7.1403871
0.030861212,-0.15068782,0.00075377991,7.1440693
0.030957349,-0.14929748,0.00082175885,7.1477446
0.031053486,-0.14790688,0.00088965841,7.1514129
0.031149622,-0.14651601,0.00095747867,7.1550743
0.031245759,-0.14512487,0.0010252197,7.1587288
0.031341896,-0.14373346,0.0010928817,7.1623764
0.031438033,-0.14234179,0.0011604646,7.1660171
0.03153417,-0.14094985,0.0012279687,7.1696509
0.031630306,-0.13955764,0.0012953939,7.1732777
0.031726443,-0.13816517,0.0013627403,7.1768977
0.03182258,-0.13677243,0.0014300081,7.1805108
0.031918717,-0.13537943,0.0014971974,7.184117
0.032014854,-0.13398616,0.0015600995,7.1877164
0.032110991,-0.13259262,0.0015035459,7.1913089
0.032207127,-0.13119883,0.0014469403,7.1948945
0.032303264,-0.12980476,0.0013902828,7.1984732
0.032399401,-0.12841044,0.0013335733,7.2020452
0.033036102,-0.11917425,0.00095765134,7.2256562
0.033083577,-0.11841908,0.0009244525,7.2273821
0.033131052,-0.11766427,0.00089127301,7.2291062
0.033178526,-0.11690982,0.00085811288,7.2308286
0.033226001,-0.11615573,0.00082497207,7.2325493
0.033273476,-0.115402,0.00079185057,7.2342683
0.03332095,-0.11464863,0.00075874836,7.2359855
0.033368425,-0.11389563,0.00072566542,7.2377011
0.0334159,-0.11314298,0.00069260173,7.2394149
0.033463374,-0.11239069,0.00065955728,7.241127
0.033510849,-0.11163876,0.00062653205,7.2428374
0.033558324,-0.11088719,0.00059352602,7.244546
0.033605798,-0.11013598,0.00056053916,7.246253
0.033653273,-0.10938512,0.00052757147,7.2479582
0.033700748,-0.10863462,0.00049462292,7.2496618
0.033748222,-0.10788448,0.0004616935,7.2513636
0.033795697,-0.1071347,0.00042878318,7.2530637
0.033843172,-0.10638528,0.00039589195,7.2547622
0.033890646,-0.10563621,0.0003630198,7.2564589
0.033938121,-0.10488749,0.00033016669,7.2581539
0.033985596,-0.10413913,0.00029733262,7.2598472
0.03403307,-0.10339113,0.00026451757,7.2615388
0.034080545,-0.10264348,0.00023172151,7.2632288
0.03412802,-0.10189619,0.00019894444,7.264917
0.034175494,-0.10114925,0.00016618633,7.2666035
0.034222969,-0.10040267,0.00013344716,7.2682884
0.034270444,-0.099656438,0.00010072692,7.2699716
0.034317918,-0.098910561,6.8025587e-05,7.271653
0.034365393,-0.09822828,3.9054456e-05,7.2733469
0.034412868,-0.097951122,3.3855448e-05,7.275129
0.034460308,-0.09767421,2.8661603e-05,7.2769092
0.034621923,-0.096687205,4.8416841e-05,7.2827703
0.034783537,-0.095861219,7.9311902e-05,7.2886488
0.034945152,-0.095035856,0.00011021997,7.2945204
0.035106766,-0.094211115,0.000141141,7.3003851
0.035268381,-0.093386992,0.00017207495,7.306243
0.035429995,-0.092563488,0.00020302179,7.3120939
0.03559161,-0.091740601,0.00023398147,7.317938
0.035753225,-0.090918329,0.00026495395,7.3237753
0.035914839,-0.090096671,0.00029593919,7.3296057
0.036076454,-0.089275625,0.00032693715,7.3354293
0.036238068,-0.08845519,0.00035794779,7.3412462
0.036399683,-0.087635364,0.00038897108,7.3470563
0.036561297,-0.086816146,0.00042000696,7.3528596
0.036722912,-0.085997536,0.00045105541,7.3586562
0.036884526,-0.08517953,0.0004730931,7.3644461
0.037046141,-0.084362128,0.00043790042,7.3702292
0.037207756,-0.083545328,0.00040273491,7.3760057
0.03736937,-0.08272913,0.00036759651,7.3817755
0.037530985,-0.081913531,0.00033248516,7.3875386
0.037692599,-0.081098531,0.0002974008,7.3932951
0.037854214,-0.080284127,0.00026234336,7.3990449
0.038015828,-0.079470319,0.00022731278,7.4047881
0.038177443,-0.078657105,0.00019230901,7.4105248
0.038339057,-0.077844483,0.00015733197,7.4162548
0.038500672,-0.077032454,0.00012238161,7.4219783
0.038662287,-0.076221014,8.7457869e-05,7.4276952
0.038823901,-0.075410163,5.2560684e-05,7.4334056
0.038985516,-0.074734534,2.4400851e-05,7.4389117
0.03914713,-0.074333541,9.9276146e-06,7.4440095
0.039308639,-0.073932995,-4.5291047e-06,7.4491007
0.039470247,-0.073418225,8.5405048e-06,7.4539962
0.039631855,-0.072903684,2.1612883e-05,7.4588878
0.039793463,-0.072415684,3.6509949e-05,7.4637707
0.039955071,-0.071963804,5.3895352e-05,7.4686434
0.040116679,-0.07151215,7.1283629e-05,7.4735126
0.040278287,-0.071060722,8.8674772e-05,7.4783783
0.040439895,-0.070609519,0.00010606877,7.4832405
0.040601503,-0.07015854,0.00012346562,7.4880991
0.040763111,-0.069707786,0.00014086532,7.4929542
0.040924719,-0.069257255,0.00015826785,7.4978058
0.041086327,-0.068806948,0.00017567321,7.5026539
0.041247935,-0.068356864,0.00019308138,7.5074985
0.041409543,-0.067907002,0.00021049238,7.5123397
0.041571151,-0.067457363,0.00022790617,7.5171773
0.041732759,-0.067007946,0.0002405103,7.5220115
0.041894367,-0.06655875,0.000221346,7.5268422
0.042055975,-0.066109775,0.00020219089,7.5316694
0.042217582,-0.06566102,0.00018304492,7.5364932
0.04237919,-0.065212486,0.0001639081,7.5413136
0.042540798,-0.064764172,0.0001447804,7.5461305
0.042702406,-0.064316077,0.00012566181,7.5509439
0.042864014,-0.063868202,0.00010655231,7.5557539
0.043025622,-0.063420545,8.7451881e-05,7.5605605
0.04318723,-0.062973106,6.8360515e-05,7.5653637
0.043348838,-0.062525885,4.9278192e-05,7.5701635
0.043510446,-0.062078882,3.0204897e-05,7.5749598
0.043672054,-0.061743404,1.5728444e-05,7.5793861
0.043833662,-0.0614646,3.5879543e-06,7.5836237
0.04399527,-0.061185902,-8.5481581e-06,7.5878592
0.044156834,-0.060907385,-2.067661e-05,7.5920914
0.044318439,-0.060532193,-9.4946889e-06,7.5961361
0.044480045,-0.060157138,1.6886448e-06,7.6001781
0.04464165,-0.059782221,1.2873388e-05,7.6042173
0.044803255,-0.05940837,2.4110789e-05,7.6082543
0.04496486,-0.05907093,3.7350486e-05,7.612304
0.045126465,-0.058733624,5.0591497e-05,7.6163512
0.045288071,-0.058396451,6.383382e-05,7.620396
0.045449676,-0.058059412,7.7077452e-05,7.6244383
0.045611281,-0.057722506,9.0322389e-05,7.6284783
0.045772886,-0.057385733,0.00010356863,7.6325158
0.045934491,-0.057049092,0.00011681617,7.6365509
0.046096097,-0.056712585,0.000130065,7.6405836
0.046257702,-0.056376209,0.00014331513,7.6446139
0.046419307,-0.056039966,0.00015656655,7.6486418
0.046580912,-0.055703855,0.00016625503,7.6526673
0.046742517,-0.055367875,0.0001519301,7.6566904
0.046904123,-0.055032027,0.00013761043,7.6607111
0.047065728,-0.054696311,0.00012329603,7.6647294
0.047227333,-0.054360725,0.00010898688,7.6687453
0.047388938,-0.054025271,9.4682979e-05,7.6727588
0.047550543,-0.053689948,8.0384318e-05,7.67677
0.047712149,-0.053354755,6.609089e-05,7.6807787
0.047873754,-0.053019693,5.1802687e-05,7.6847851
0.048035359,-0.052684761,3.7519701e-05,7.6887892
0.048196964,-0.052349959,2.3241926e-05,7.6927909
0.048358569,-0.05210779,1.2123856e-05,7.6964554
0.048520175,-0.05189372,1.9646389e-06,7.7000168
0.04868178,-0.051679717,-8.1916834e-06,7.7035767
0.048843385,-0.051465782,-1.8345114e-05,7.7071352
0.049004964,-0.051251947,-2.8494024e-05,7.7106916
0.049166568,-0.050957873,-1.9003317e-05,7.7140646
0.049328171,-0.050663889,-9.5118176e-06,7.7174357
0.049489775,-0.050369993,-1.9526939e-08,7.7208048
0.049651378,-0.050076186,9.4735533e-06,7.7241719
0.049812982,-0.049782467,1.8967422e-05,7.727537
0.049974586,-0.049495812,3.0236181e-05,7.7309469
0.050136189,-0.04921003,4.1705732e-05,7.7343601
0.050297793,-0.048924336,5.3176171e-05,7.7377714
0.050459396,-0.04863873,6.4647496e-05,7.7411808
0.050621,-0.048353212,7.6119707e-05,7.7445883
0.050782603,-0.048067781,8.75928e-05,7.7479939
0.050944207,-0.047782437,9.9066775e-05,7.7513976
0.051105811,-0.047497181,0.00011054163,7.7547994
0.051267414,-0.047212012,0.00012201736,7.7581994
0.051429018,-0.046926929,0.00013046351,7.7615974
0.051590621,-0.046641934,0.00011822388,7.7649936
0.051752225,-0.046357026,0.00010598799,7.7683879
0.051913828,-0.046072204,9.3755847e-05,7.7717803
0.052075432,-0.045787469,8.1527439e-05,7.7751708
0.052237036,-0.045502821,6.9302764e-05,7.7785595
0.052398639,-0.045218259,5.7081816e-05,7.7819463
0.052560243,-0.044933783,4.4864592e-05,7.7853312
0.052721846,-0.044649393,3.2651086e-05,7.7887143
0.05288345,-0.04436509,2.0441295e-05,7.7920955
0.053045053,-0.044132598,1.0743917e-05,7.7952537
0.053206657,-0.043922818,2.147707e-06,7.7983135
0.053368261,-0.043713093,-6.4463097e-06,7.801372
0.053529864,-0.04350342,-1.5038136e-05,7.8044291
0.053691468,-0.043293802,-2.3627773e-05,7.8074849
0.053853054,-0.043084259,-3.2214297e-05,7.810539
0.054014656,-0.042806675,-2.4091065e-05,7.8134093
0.054176259,-0.042529161,-1.5967138e-05,7.8162779
0.054337861,-0.042251715,-7.8425153e-06,7.8191447
0.054499464,-0.041974339,2.8280088e-07,7.8220098
0.054661066,-0.041697031,8.4088099e-06,7.8248732
0.054822669,-0.041419792,1.6535511e-05,7.8277348
0.054984271,-0.041163128,2.6921313e-05,7.8306194
0.055145873,-0.040907044,3.7364265e-05,7.8335031
0.055307476,-0.040651028,4.7807955e-05,7.8363851
0.055469078,-0.040395079,5.8252384e-05,7.8392656
0.055630681,-0.040139197,6.8697549e-05,7.8421445
0.055792283,-0.039883383,7.9143449e-05,7.8450218
0.055953886,-0.039627636,8.9590083e-05,7.8478975
0.056115488,-0.039371956,0.00010003745,7.8507716
0.056277091,-0.039116343,0.00010776449,7.8536441
0.056438693,-0.038860797,9.6749305e-05,7.856515
0.056600296,-0.038605318,8.5737014e-05,7.8593844
0.056761898,-0.038349906,7.4727616e-05,7.8622521
0.056923501,-0.038094561,6.3721107e-05,7.8651183
0.057085103,-0.037839283,5.2717484e-05,7.8679829
0.057246705,-0.037584071,4.1716746e-05,7.870846
0.057408308,-0.037328926,3.0718889e-05,7.8737074
0.05756991,-0.037073848,1.972391e-05,7.8765673
0.057731513,-0.036855101,1.0422339e-05,7.8792863
0.057893115,-0.036677223,3.0256996e-06,7.8818469
0.058054718,-0.036499383,-4.3693737e-06,7.8844065
0.05821632,-0.036321581,-1.1762882e-05,7.8869651
0.058377923,-0.036143817,-1.9154827e-05,7.8895225
0.058539525,-0.03596609,-2.6545211e-05,7.8920789
0.058701115,-0.035788415,-3.3933449e-05,7.8946341
0.058862716,-0.035549922,-2.6873347e-05,7.8970059
0.059024318,-0.035311479,-1.9812733e-05,7.8993764
0.05918592,-0.035073085,-1.2751607e-05,7.9017454
0.059347521,-0.03483474,-5.6899711e-06,7.9041131
0.059509123,-0.034596445,1.372175e-06,7.9064793
0.059670725,-0.034358199,8.4348305e-06,7.9088441
0.059832326,-0.034128544,1.5756059e-05,7.9112236
0.059993928,-0.033928509,2.3971217e-05,7.9136574
0.06015553,-0.033728521,3.2186761e-05,7.91609
0.060317131,-0.03352858,4.0402691e-05,7.9185215
0.060478733,-0.033328686,4.8619005e-05,7.9209517
0.060640335,-0.033128839,5.6835704e-05,7.9233808
0.060801936,-0.032929039,6.5052786e-05,7.9258087
0.060963538,-0.032729285,7.3270251e-05,7.9282355
0.06112514,-0.032529578,7.9369493e-05,7.930661
0.061286741,-0.032329918,7.0786861e-05,7.9330854
0.061448343,-0.032130304,6.2206025e-05,7.9355086
0.061609945,-0.031930737,5.3626984e-05,7.9379307
0.061771546,-0.031731216,4.5049735e-05,7.9403516
0.061933148,-0.031531742,3.6474278e-05,7.9427713
0.06209475,-0.031332315,2.7900611e-05,7.9451899
0.062256351,-0.031132934,1.9328732e-05,7.9476073
0.062417953,-0.030943436,1.1017147e-05,7.9499995
0.062579555,-0.030830623,4.7214832e-06,7.9522032
0.062741156,-0.03071783,-1.5732142e-06,7.9544062
0.062902758,-0.030605058,-7.8669462e-06,7.9566085
0.06306436,-0.030492306,-1.4159713e-05,7.9588102
0.063225961,-0.030379574,-2.0451516e-05,7.9610113
0.063387563,-0.030266863,-2.6742356e-05,7.9632117
0.063549156,-0.030154178,-3.3031906e-05,7.9654113
0.063710757,-0.02998837,-2.6975787e-05,7.9674296
0.063872359,-0.029822592,-2.0919451e-05,7.969447
0.06403396,-0.029656842,-1.4862899e-05,7.9714635
0.064195561,-0.029491122,-8.8061304e-06,7.973479
0.064357162,-0.02932543,-2.7491466e-06,7.9754936
0.064518763,-0.029159768,3.3080527e-06,7.9775072
0.064680364,-0.028994134,9.3654672e-06,7.97952
0.064841965,-0.028836488,1.5579912e-05,7.9815708
0.065003567,-0.02868402,2.1896018e-05,7.983646
0.065165168,-0.028531581,2.8212294e-05,7.9857204
0.065326769,-0.02837917,3.452874e-05,7.9877939
0.06548837,-0.028226787,4.0845357e-05,7.9898665
0.065649971,-0.028074431,4.7162144e-05,7.9919383
0.065811572,-0.027922104,5.3479101e-05,7.9940093
0.065973174,-0.027769805,5.8178528e-05,7.9960794
0.066134775,-0.027617534,5.162525e-05,7.9981486
0.066296376,-0.02746529,4.5073059e-05,8.0002169
0.066457977,-0.027313075,3.8521955e-05,8.0022845
0.066619578,-0.027160887,3.1971938e-05,8.0043511
0.066781179,-0.027008728,2.5423006e-05,8.0064169
0.066942781,-0.026856596,1.8875159e-05,8.0084819
0.067104382,-0.026704492,1.2328396e-05,8.010546
0.067265983,-0.026587137,6.5976103e-06,8.0124962
0.067427584,-0.026487838,1.2909913e-06,8.0143869
0.067589185,-0.026388554,-4.014927e-06,8.0162772
0.067750786,-0.026289286,-9.320145e-06,8.0181668
0.067912387,-0.026190032,-1.4624663e-05,8.0200559
0.068073989,-0.026090793,-1.9928482e-05,8.0219445
0.06823559,-0.025991569,-2.5231602e-05,8.0238325
0.068397186,-0.025892363,-3.0533855e-05,8.0257198
0.068558787,-0.025748527,-2.5399482e-05,8.0274236
0.068720388,-0.025604712,-2.0264955e-05,8.0291266
0.068881988,-0.025460919,-1.5130273e-05,8.0308288
0.069043589,-0.025317146,-9.9954362e-06,8.0325303
0.06920519,-0.025173395,-4.8604449e-06,8.0342309
0.069366791,-0.025029664,2.7470069e-07,8.0359308
0.069528392,-0.024885955,5.4100005e-06,8.0376299
0.069689993,-0.024743282,1.0577984e-05,8.0393344
0.069851593,-0.024611336,1.6089321e-05,8.0411035
0.070013194,-0.024479411,2.1600781e-05,8.0428719
0.070174795,-0.024347506,2.7112365e-05,8.0446396
0.070336396,-0.024215622,3.2624074e-05,8.0464066
0.070497997,-0.024083758,3.8135906e-05,8.0481728
0.070659598,-0.023951915,4.3647862e-05,8.0499384
0.070821198,-0.023820092,4.77552e-05,8.0517033
0.070982799,-0.023688289,4.206841e-05,8.0534674
0.0711444,-0.023556507,3.6382428e-05,8.0552308
0.071306001,-0.023424745,3.0697253e-05,8.0569936
0.071467602,-0.023293004,2.5012885e-05,8.0587556
0.071629203,-0.023161283,1.9329322e-05,8.0605169
0.071790803,-0.023029582,1.3646565e-05,8.0622775
0.071952404,-0.02290353,8.1130142e-06,8.0640214
0.072114005,-0.022817106,3.6245543e-06,8.0656521
0.072275606,-0.022730694,-8.6339753e-07,8.0672823
0.072437207,-0.022644292,-5.3508416e-06,8.0689121
0.072598808,-0.022557901,-9.8377781e-06,8.0705414
0.072760409,-0.022471521,-1.4324207e-05,8.0721702
0.072922009,-0.022385152,-1.881013e-05,8.0737986
0.07308361,-0.022298795,-2.3295545e-05,8.0754265
0.073245207,-0.02221245,-2.7780351e-05,8.0770539
0.073406808,-0.022087862,-2.341667e-05,8.0784941
0.073568409,-0.021963289,-1.9052878e-05,8.0799336
0.073730009,-0.021838732,-1.4688973e-05,8.0813724
0.07389161,-0.02171419,-1.0324957e-05,8.0828106
0.07405321,-0.021589664,-5.96083e-06,8.0842481
0.074214811,-0.021465153,-1.5965912e-06,8.085685
0.074376412,-0.021340658,2.7677589e-06,8.0871212
0.074538012,-0.021216178,7.1322202e-06,8.0885568
0.074699613,-0.021096268,1.1870261e-05,8.0900419
0.074861213,-0.020978876,1.6813714e-05,8.0915541
0.075022814,-0.020861499,2.1757272e-05,8.0930656
0.075184415,-0.020744138,2.6700933e-05,8.0945765
0.075346015,-0.020626791,3.1644698e-05,8.0960868
0.075507616,-0.02050946,3.6588567e-05,8.0975965
0.075669216,-0.020392143,4.0277293e-05,8.0991056
0.075830817,-0.020274842,3.5200507e-05,8.1006141
0.075992418,-0.020157556,3.0124347e-05,8.102122
0.076154018,-0.020040285,2.5048813e-05,8.1036293
0.076315619,-0.019923029,1.9973904e-05,8.105136
0.07647722,-0.019805788,1.489962e-05,8.106642
0.07663882,-0.019688562,9.825961e-06,8.1081475
0.076800421,-0.019588861,5.3626334e-06,8.1096035
0.076962021,-0.019505112,1.454804e-06,8.1110146
0.077123622,-0.019421371,-2.4526264e-06,8.1124253
0.077285223,-0.01933764,-6.359658e-06,8.1138355
0.077446823,-0.019253918,-1.0266291e-05,8.1152453
0.077608424,-0.019170204,-1.4172525e-05,8.1166546
0.077770024,-0.0190865,-1.8078361e-05,8.1180636
0.077931625,-0.019002805,-2.1983799e-05,8.1194721
0.078093223,-0.01891912,-2.5888772e-05,8.1208801
0.078254823,-0.018803685,-2.2073194e-05,8.1220969
0.078416424,-0.018688262,-1.8257512e-05,8.123313
0.078578024,-0.018572851,-1.4441729e-05,8.1245286
0.078739625,-0.018457453,-1.0625842e-05,8.1257436
0.078901225,-0.018342067,-6.8098532e-06,8.1269581
0.079062826,-0.018226693,-2.9937618e-06,8.1281719
0.079224426,-0.018111332,8.2243201e-07,8.1293852
0.079386026,-0.017995982,4.6387282e-06,8.1305978
0.079547627,-0.017883278,8.6347684e-06,8.1318329
0.079709227,-0.017777625,1.3111144e-05,8.133129